# vtk DataFile Version 2.0
grid description
ASCII
DATASET UNSTRUCTURED_GRID

POINTS 1019 double
0 0 0.1
900 0 0.1
900 900 0.1
0 900 0.1
50 50 0.1
100 50 0.1
100 100 0.1
50 100 0.1
600 600 0.1
500 500 0.1
500 700 0.1
600 400 0.1
600 200 0.1
200 200 0.1
200 400 0.1
800 800 0.1
800 700 0.1
700 700 0.1
700 800 0.1
259 38 0.1
366 158 0.1
96 190 0.1
387 493 0.1
190 580 0.1
98 702 0.1
174 816 0.1
798 806 0.1
425 878 0.1
636 868 0.1
548 899 0.1
540 763 0.1
535 519 0.1
858 377 0.1
389 527 0.1
7 115 0.1
119 24 0.1
169 23 0.1
272 3 0.1
296 5 0.1
343 376 0.1
329 340 0.1
306 301 0.1
234 314 0.1
206 270 0.1
56 387 0.1
15 398 0.1
142 537 0.1
48 541 0.1
63 686 0.1
110 841 0.1
4 866 0.1
222 864 0.1
173 823 0.1
202 747 0.1
198 520 0.1
204 487 0.1
338 450 0.1
525 418 0.1
352 522 0.1
671 537 0.1
389 560 0.1
449 569 0.1
419 737 0.1
872 875 0.1
729 672 0.1
836 669 0.1
770 609 0.1
847 492 0.1
797 460 0.1
781 362 0.1
633 334 0.1
590 364 0.1
511 338 0.1
412 355 0.1
397 272 0.1
571 33 0.1
597 189 0.1
697 54 0.1
718 199 0.1
779 111 0.1
882 270 0.1
109 59 0.1
67 68 0.1
98 100 0.1
111 105 0.1
83 161 0.1
188 143 0.1
216 133 0.1
226 118 0.1
221 94 0.1
226 93 0.1
239 12 0.1
248 14 0.1
263 0 0.1
338 57 0.1
373 71 0.1
388 15 0.1
390 61 0.1
444 123 0.1
429 142 0.1
418 161 0.1
383 84 0.1
342 162 0.1
262 140 0.1
305 231 0.1
342 278 0.1
353 237 0.1
364 180 0.1
394 256 0.1
400 191 0.1
396 375 0.1
312 394 0.1
298 297 0.1
275 380 0.1
235 377 0.1
232 396 0.1
157 374 0.1
226 357 0.1
195 323 0.1
228 205 0.1
142 186 0.1
174 166 0.1
128 163 0.1
38 236 0.1
79 238 0.1
87 328 0.1
77 376 0.1
68 392 0.1
19 429 0.1
36 420 0.1
91 412 0.1
104 457 0.1
186 425 0.1
239 500 0.1
184 628 0.1
155 461 0.1
133 487 0.1
80 461 0.1
40 622 0.1
44 663 0.1
62 681 0.1
43 698 0.1
109 711 0.1
93 717 0.1
47 864 0.1
121 873 0.1
211 808 0.1
215 767 0.1
241 728 0.1
181 661 0.1
216 645 0.1
259 653 0.1
306 654 0.1
280 663 0.1
329 691 0.1
280 806 0.1
254 885 0.1
384 804 0.1
390 794 0.1
347 784 0.1
366 772 0.1
386 769 0.1
438 704 0.1
431 556 0.1
393 626 0.1
352 584 0.1
310 586 0.1
298 563 0.1
261 575 0.1
273 451 0.1
284 418 0.1
304 555 0.1
337 544 0.1
424 513 0.1
426 518 0.1
539 402 0.1
548 408 0.1
554 403 0.1
603 433 0.1
610 450 0.1
635 491 0.1
614 508 0.1
610 546 0.1
500 485 0.1
480 564 0.1
465 471 0.1
523 565 0.1
474 571 0.1
494 576 0.1
516 606 0.1
470 645 0.1
523 658 0.1
578 855 0.1
642 845 0.1
566 832 0.1
641 762 0.1
606 640 0.1
533 635 0.1
726 665 0.1
725 678 0.1
645 725 0.1
752 746 0.1
668 804 0.1
687 888 0.1
805 869 0.1
810 854 0.1
798 845 0.1
802 833 0.1
855 751 0.1
804 738 0.1
895 574 0.1
839 609 0.1
769 595 0.1
691 530 0.1
670 547 0.1
652 581 0.1
670 513 0.1
720 425 0.1
815 502 0.1
827 429 0.1
879 453 0.1
896 519 0.1
877 395 0.1
881 382 0.1
788 338 0.1
785 321 0.1
829 316 0.1
766 232 0.1
760 235 0.1
777 289 0.1
723 314 0.1
760 332 0.1
784 337 0.1
713 293 0.1
597 372 0.1
597 311 0.1
533 352 0.1
521 298 0.1
483 337 0.1
477 231 0.1
568 266 0.1
612 269 0.1
634 289 0.1
672 230 0.1
673 240 0.1
707 218 0.1
683 196 0.1
662 156 0.1
650 202 0.1
554 146 0.1
545 172 0.1
476 17 0.1
518 12 0.1
562 80 0.1
571 109 0.1
633 114 0.1
671 137 0.1
740 73 0.1
771 92 0.1
714 120 0.1
764 121 0.1
771 159 0.1
770 211 0.1
894 193 0.1
881 151 0.1
879 110 0.1
782 78 0.1
793 25 0.1
841 24 0.1
14 37 0.1
23 4 0.1
53 5 0.1
76 43 0.1
87 44 0.1
69 73 0.1
58 84 0.1
53 82 0.1
52 91 0.1
47 52 0.1
3 63 0.1
17 92 0.1
18 107 0.1
23 121 0.1
22 156 0.1
6 157 0.1
32 162 0.1
57 222 0.1
36 177 0.1
84 161 0.1
81 144 0.1
38 122 0.1
37 97 0.1
93 143 0.1
99 149 0.1
142 154 0.1
125 194 0.1
118 207 0.1
188 220 0.1
178 190 0.1
153 179 0.1
157 178 0.1
203 165 0.1
156 142 0.1
209 73 0.1
153 87 0.1
116 80 0.1
101 92 0.1
100 75 0.1
97 125 0.1
128 16 0.1
151 5 0.1
160 63 0.1
170 3 0.1
188 29 0.1
206 37 0.1
221 62 0.1
217 94 0.1
238 101 0.1
243 119 0.1
211 141 0.1
272 137 0.1
300 105 0.1
314 104 0.1
272 103 0.1
289 90 0.1
280 42 0.1
339 82 0.1
359 28 0.1
382 8 0.1
384 61 0.1
398 63 0.1
435 0 0.1
406 121 0.1
376 102 0.1
358 156 0.1
348 146 0.1
327 113 0.1
314 103 0.1
328 166 0.1
374 173 0.1
396 162 0.1
418 177 0.1
423 168 0.1
424 161 0.1
386 205 0.1
373 200 0.1
344 194 0.1
336 217 0.1
320 218 0.1
319 204 0.1
274 211 0.1
291 193 0.1
269 190 0.1
316 184 0.1
278 165 0.1
274 162 0.1
243 156 0.1
223 166 0.1
231 204 0.1
216 221 0.1
260 224 0.1
263 226 0.1
250 227 0.1
252 253 0.1
269 253 0.1
265 281 0.1
250 289 0.1
285 271 0.1
310 261 0.1
306 251 0.1
311 236 0.1
311 235 0.1
306 226 0.1
313 231 0.1
340 230 0.1
356 228 0.1
390 231 0.1
416 229 0.1
430 232 0.1
405 286 0.1
379 272 0.1
364 260 0.1
354 235 0.1
351 274 0.1
342 235 0.1
383 300 0.1
385 318 0.1
392 349 0.1
408 333 0.1
420 310 0.1
432 358 0.1
427 437 0.1
394 398 0.1
377 361 0.1
376 447 0.1
370 445 0.1
367 379 0.1
313 443 0.1
348 437 0.1
350 399 0.1
296 391 0.1
337 321 0.1
358 310 0.1
282 318 0.1
267 373 0.1
274 397 0.1
270 425 0.1
281 443 0.1
262 446 0.1
235 438 0.1
179 414 0.1
161 440 0.1
160 421 0.1
136 414 0.1
157 394 0.1
209 410 0.1
211 401 0.1
211 394 0.1
222 368 0.1
245 411 0.1
238 342 0.1
218 337 0.1
174 314 0.1
246 304 0.1
167 272 0.1
213 242 0.1
161 283 0.1
160 315 0.1
144 337 0.1
136 338 0.1
161 344 0.1
159 363 0.1
45 360 0.1
50 353 0.1
57 350 0.1
122 310 0.1
133 275 0.1
132 245 0.1
12 279 0.1
36 282 0.1
10 283 0.1
29 312 0.1
8 328 0.1
33 350 0.1
7 411 0.1
23 388 0.1
27 397 0.1
40 360 0.1
67 370 0.1
106 406 0.1
96 434 0.1
74 448 0.1
50 438 0.1
24 434 0.1
18 434 0.1
14 420 0.1
11 482 0.1
31 483 0.1
2 498 0.1
8 521 0.1
24 527 0.1
39 513 0.1
48 487 0.1
63 484 0.1
45 465 0.1
36 462 0.1
36 448 0.1
116 459 0.1
146 484 0.1
148 460 0.1
155 459 0.1
171 448 0.1
182 473 0.1
195 500 0.1
190 523 0.1
182 517 0.1
175 488 0.1
154 497 0.1
115 536 0.1
102 562 0.1
157 543 0.1
164 565 0.1
177 549 0.1
182 541 0.1
205 570 0.1
205 623 0.1
185 593 0.1
149 574 0.1
131 627 0.1
124 620 0.1
121 617 0.1
95 628 0.1
56 623 0.1
99 616 0.1
66 584 0.1
53 571 0.1
80 540 0.1
26 554 0.1
3 579 0.1
47 585 0.1
15 594 0.1
0 603 0.1
12 613 0.1
14 659 0.1
31 643 0.1
62 674 0.1
72 701 0.1
81 676 0.1
76 777 0.1
74 742 0.1
73 766 0.1
61 766 0.1
40 771 0.1
29 770 0.1
29 777 0.1
7 794 0.1
13 798 0.1
18 806 0.1
10 882 0.1
6 882 0.1
46 891 0.1
77 866 0.1
44 865 0.1
55 862 0.1
84 853 0.1
62 809 0.1
119 780 0.1
113 856 0.1
97 869 0.1
94 877 0.1
102 877 0.1
117 884 0.1
174 894 0.1
207 886 0.1
197 883 0.1
146 861 0.1
164 797 0.1
140 777 0.1
200 727 0.1
189 770 0.1
188 672 0.1
156 749 0.1
125 723 0.1
105 695 0.1
122 668 0.1
145 658 0.1
148 657 0.1
155 630 0.1
163 658 0.1
170 629 0.1
210 740 0.1
241 754 0.1
268 737 0.1
292 748 0.1
295 738 0.1
319 795 0.1
315 764 0.1
284 792 0.1
247 769 0.1
240 798 0.1
228 777 0.1
209 834 0.1
246 851 0.1
210 881 0.1
222 885 0.1
244 895 0.1
238 897 0.1
263 899 0.1
249 897 0.1
288 886 0.1
298 874 0.1
261 848 0.1
294 814 0.1
335 811 0.1
371 845 0.1
334 865 0.1
342 866 0.1
372 871 0.1
341 896 0.1
406 867 0.1
406 861 0.1
374 846 0.1
407 840 0.1
380 839 0.1
409 831 0.1
434 799 0.1
411 764 0.1
411 758 0.1
389 802 0.1
361 781 0.1
359 778 0.1
326 747 0.1
327 754 0.1
350 737 0.1
405 738 0.1
418 738 0.1
421 749 0.1
369 702 0.1
422 690 0.1
413 659 0.1
429 632 0.1
425 631 0.1
353 622 0.1
336 661 0.1
324 674 0.1
338 682 0.1
328 688 0.1
326 689 0.1
254 719 0.1
236 715 0.1
224 698 0.1
221 705 0.1
214 693 0.1
209 717 0.1
255 607 0.1
256 658 0.1
266 633 0.1
275 622 0.1
297 692 0.1
305 682 0.1
312 530 0.1
301 599 0.1
269 603 0.1
260 540 0.1
257 527 0.1
222 541 0.1
245 464 0.1
260 490 0.1
261 448 0.1
264 492 0.1
282 471 0.1
297 456 0.1
340 532 0.1
395 532 0.1
364 533 0.1
384 547 0.1
357 579 0.1
391 584 0.1
416 593 0.1
413 581 0.1
411 558 0.1
404 540 0.1
428 532 0.1
421 505 0.1
444 467 0.1
469 503 0.1
454 508 0.1
445 543 0.1
450 546 0.1
473 579 0.1
498 575 0.1
481 531 0.1
483 522 0.1
481 491 0.1
471 475 0.1
518 535 0.1
557 490 0.1
575 483 0.1
589 504 0.1
590 499 0.1
615 515 0.1
578 539 0.1
577 573 0.1
551 574 0.1
535 556 0.1
519 538 0.1
513 580 0.1
507 600 0.1
537 582 0.1
551 581 0.1
580 587 0.1
616 580 0.1
611 631 0.1
611 652 0.1
585 635 0.1
582 660 0.1
509 636 0.1
508 675 0.1
449 626 0.1
490 621 0.1
474 606 0.1
500 601 0.1
471 589 0.1
492 587 0.1
436 582 0.1
437 603 0.1
441 611 0.1
446 621 0.1
439 630 0.1
437 665 0.1
451 693 0.1
455 675 0.1
484 679 0.1
491 691 0.1
497 682 0.1
504 696 0.1
494 708 0.1
484 733 0.1
480 714 0.1
465 693 0.1
460 697 0.1
437 744 0.1
440 745 0.1
465 762 0.1
456 783 0.1
449 793 0.1
470 889 0.1
488 896 0.1
473 893 0.1
470 892 0.1
496 886 0.1
471 867 0.1
493 837 0.1
554 816 0.1
575 848 0.1
570 850 0.1
568 854 0.1
538 867 0.1
540 872 0.1
607 893 0.1
611 885 0.1
594 877 0.1
608 869 0.1
609 835 0.1
595 823 0.1
614 801 0.1
560 744 0.1
547 732 0.1
533 815 0.1
531 733 0.1
506 756 0.1
507 695 0.1
510 683 0.1
581 697 0.1
587 708 0.1
599 686 0.1
615 696 0.1
649 699 0.1
649 717 0.1
652 686 0.1
668 702 0.1
730 685 0.1
735 727 0.1
734 746 0.1
718 789 0.1
711 742 0.1
701 742 0.1
627 723 0.1
653 793 0.1
655 801 0.1
652 830 0.1
673 850 0.1
641 853 0.1
645 879 0.1
716 899 0.1
692 897 0.1
726 891 0.1
720 882 0.1
688 839 0.1
679 819 0.1
758 791 0.1
740 869 0.1
750 869 0.1
749 874 0.1
767 889 0.1
754 899 0.1
808 849 0.1
792 848 0.1
816 818 0.1
799 811 0.1
789 793 0.1
889 790 0.1
896 757 0.1
827 748 0.1
780 761 0.1
761 770 0.1
749 774 0.1
744 789 0.1
741 719 0.1
769 694 0.1
822 741 0.1
862 730 0.1
864 685 0.1
866 718 0.1
871 667 0.1
871 597 0.1
885 585 0.1
861 579 0.1
866 555 0.1
861 592 0.1
838 622 0.1
821 622 0.1
810 642 0.1
833 645 0.1
846 656 0.1
773 624 0.1
732 657 0.1
720 683 0.1
653 646 0.1
647 629 0.1
634 618 0.1
671 601 0.1
704 617 0.1
708 574 0.1
720 600 0.1
756 556 0.1
796 603 0.1
829 540 0.1
827 555 0.1
748 545 0.1
720 536 0.1
709 552 0.1
698 553 0.1
703 474 0.1
726 523 0.1
741 472 0.1
744 524 0.1
790 517 0.1
818 495 0.1
829 464 0.1
848 470 0.1
844 480 0.1
849 483 0.1
830 500 0.1
830 555 0.1
897 522 0.1
852 519 0.1
866 518 0.1
862 512 0.1
889 480 0.1
871 469 0.1
892 456 0.1
818 423 0.1
808 423 0.1
797 445 0.1
775 426 0.1
768 414 0.1
771 396 0.1
772 393 0.1
783 408 0.1
820 417 0.1
845 405 0.1
829 393 0.1
[...]
CELL_DATA 2028
SCALARS scalars float 1
LOOKUP_TABLE lut 
0
0.00049334
0.00098668
0.00148002
0.00197336
0.0024667
0.00296004
0.00345338
0.00394672
0.00444006
0.0049334
0.00542674
0.00592008
0.00641342
0.00690676
0.0074001
0.00789344
0.00838678
0.00888012
0.00937346
0.0098668
0.0103601
0.0108535
0.0113468
0.0118402
0.0123335
0.0128268
0.0133202
0.0138135
0.0143069
0.0148002
0.0152935
0.0157869
0.0162802
0.0167736
0.0172669
0.0177602
0.0182536
0.0187469
0.0192403
0.0197336
0.0202269
0.0207203
0.0212136
0.021707
0.0222003
0.0226936
0.023187
0.0236803
0.0241737
0.024667
0.0251603
0.0256537
0.026147
0.0266404
0.0271337
0.027627
0.0281204
0.0286137
0.0291071
0.0296004
0.0300937
0.0305871
0.0310804
0.0315738
0.0320671
0.0325604
0.0330538
0.0335471
0.0340405
0.0345338
0.0350271
0.0355205
0.0360138
0.0365072
0.0370005
0.0374938
0.0379872
0.0384805
0.0389739
0.0394672
0.0399605
0.0404539
0.0409472
0.0414406
0.0419339
0.0424272
0.0429206
0.0434139
0.0439073
0.0444006
0.0448939
0.0453873
0.0458806
0.046374
0.0468673
0.0473606
0.047854
0.0483473
0.0488407
0.049334
0.0498273
0.0503207
0.050814
0.0513074
0.0518007
0.052294
0.0527874
0.0532807
0.0537741
0.0542674
0.0547607
0.0552541
0.0557474
0.0562407
0.0567341
0.0572274
0.0577208
0.0582141
0.0587074
0.0592008
0.0596941
0.0601875
0.0606808
0.0611741
0.0616675
0.0621608
0.0626542
0.0631475
0.0636408
0.0641342
0.0646275
0.0651209
0.0656142
0.0661075
0.0666009
0.0670942
0.0675876
0.0680809
0.0685742
0.0690676
0.0695609
0.0700543
0.0705476
0.0710409
0.0715343
0.0720276
0.072521
0.0730143
0.0735076
0.074001
0.0744943
0.0749877
0.075481
0.0759743
0.0764677
0.076961
0.0774544
0.0779477
0.078441
0.0789344
0.0794277
0.0799211
0.0804144
0.0809077
0.0814011
0.0818944
0.0823878
0.0828811
0.0833744
0.0838678
0.0843611
0.0848545
0.0853478
0.0858411
0.0863345
0.0868278
0.0873212
0.0878145
0.0883078
0.0888012
0.0892945
0.0897879
0.0902812
0.0907745
0.0912679
0.0917612
0.0922546
0.0927479
0.0932412
0.0937346
0.0942279
0.0947213
0.0952146
0.0957079
0.0962013
0.0966946
0.097188
0.0976813
0.0981746
0.098668
0.0991613
0.0996547
0.100148
0.100641
0.101135
0.101628
0.102121
0.102615
0.103108
0.103601
0.104095
0.104588
0.105081
0.105575
0.106068
0.106561
0.107055
0.107548
0.108041
0.108535
0.109028
0.109521
0.110015
0.110508
0.111001
0.111495
0.111988
0.112481
0.112975
0.113468
0.113962
0.114455
0.114948
0.115442
0.115935
0.116428
0.116922
0.117415
0.117908
0.118402
0.118895
0.119388
0.119882
0.120375
0.120868
0.121362
0.121855
0.122348
0.122842
0.123335
0.123828
0.124322
0.124815
0.125308
0.125802
0.126295
0.126788
0.127282
0.127775
0.128268
0.128762
0.129255
0.129748
0.130242
0.130735
0.131228
0.131722
0.132215
0.132708
0.133202
0.133695
0.134188
0.134682
0.135175
0.135668
0.136162
0.136655
0.137148
0.137642
0.138135
0.138629
0.139122
0.139615
0.140109
0.140602
0.141095
0.141589
0.142082
0.142575
0.143069
0.143562
0.144055
0.144549
0.145042
0.145535
0.146029
0.146522
0.147015
0.147509
0.148002
0.148495
0.148989
0.149482
0.149975
0.150469
0.150962
0.151455
0.151949
0.152442
0.152935
0.153429
0.153922
0.154415
0.154909
0.155402
0.155895
0.156389
0.156882
0.157375
0.157869
0.158362
0.158855
0.159349
0.159842
0.160335
0.160829
0.161322
0.161815
0.162309
0.162802
0.163296
0.163789
0.164282
0.164776
0.165269
0.165762
0.166256
0.166749
0.167242
0.167736
0.168229
0.168722
0.169216
0.169709
0.170202
0.170696
0.171189
0.171682
0.172176
0.172669
0.173162
0.173656
0.174149
0.174642
0.175136
0.175629
0.176122
0.176616
0.177109
0.177602
0.178096
0.178589
0.179082
0.179576
0.180069
0.180562
0.181056
0.181549
0.182042
0.182536
0.183029
0.183522
0.184016
0.184509
0.185002
0.185496
0.185989
0.186482
0.186976
0.187469
0.187963
0.188456
0.188949
0.189443
0.189936
0.190429
0.190923
0.191416
0.191909
0.192403
0.192896
0.193389
0.193883
0.194376
0.194869
0.195363
0.195856
0.196349
0.196843
0.197336
0.197829
0.198323
0.198816
0.199309
0.199803
0.200296
0.200789
0.201283
0.201776
0.202269
0.202763
0.203256
0.203749
0.204243
0.204736
0.205229
0.205723
0.206216
0.206709
0.207203
0.207696
0.208189
0.208683
0.209176
0.209669
0.210163
0.210656
0.211149
0.211643
0.212136
0.21263
0.213123
0.213616
0.21411
0.214603
0.215096
0.21559
0.216083
0.216576
0.21707
0.217563
0.218056
0.21855
0.219043
0.219536
0.22003
0.220523
0.221016
0.22151
0.222003
0.222496
0.22299
0.223483
0.223976
0.22447
0.224963
0.225456
0.22595
0.226443
0.226936
0.22743
0.227923
0.228416
0.22891
0.229403
0.229896
0.23039
0.230883
0.231376
0.23187
0.232363
0.232856
0.23335
0.233843
0.234336
0.23483
0.235323
0.235816
0.23631
0.236803
0.237296
0.23779
0.238283
0.238777
0.23927
0.239763
0.240257
0.24075
0.241243
0.241737
0.24223
0.242723
0.243217
0.24371
0.244203
0.244697
0.24519
0.245683
0.246177
0.24667
0.247163
0.247657
0.24815
0.248643
0.249137
0.24963
0.250123
0.250617
0.25111
0.251603
0.252097
0.25259
0.253083
0.253577
0.25407
0.254563
0.255057
0.25555
0.256043
0.256537
0.25703
0.257523
0.258017
0.25851
0.259003
0.259497
0.25999
0.260483
0.260977
0.26147
0.261963
0.262457
0.26295
0.263444
0.263937
0.26443
0.264924
0.265417
0.26591
0.266404
0.266897
0.26739
0.267884
0.268377
0.26887
0.269364
0.269857
0.27035
0.270844
0.271337
0.27183
0.272324
0.272817
0.27331
0.273804
0.274297
0.27479
0.275284
0.275777
0.27627
0.276764
0.277257
0.27775
0.278244
0.278737
0.27923
0.279724
0.280217
0.28071
0.281204
0.281697
0.28219
0.282684
0.283177
0.28367
0.284164
0.284657
0.28515
0.285644
0.286137
0.28663
0.287124
0.287617
0.288111
0.288604
0.289097
0.289591
0.290084
0.290577
0.291071
0.291564
0.292057
0.292551
0.293044
0.293537
0.294031
0.294524
0.295017
0.295511
0.296004
0.296497
0.296991
0.297484
0.297977
0.298471
0.298964
0.299457
0.299951
0.300444
0.300937
0.301431
0.301924
0.302417
0.302911
0.303404
0.303897
0.304391
0.304884
0.305377
0.305871
0.306364
0.306857
0.307351
0.307844
0.308337
0.308831
0.309324
0.309817
0.310311
0.310804
0.311297
0.311791
0.312284
0.312778
0.313271
0.313764
0.314258
0.314751
0.315244
0.315738
0.316231
0.316724
0.317218
0.317711
0.318204
0.318698
0.319191
0.319684
0.320178
0.320671
0.321164
0.321658
0.322151
0.322644
0.323138
0.323631
0.324124
0.324618
0.325111
0.325604
0.326098
0.326591
0.327084
0.327578
0.328071
0.328564
0.329058
0.329551
0.330044
0.330538
0.331031
0.331524
0.332018
0.332511
0.333004
0.333498
0.333991
0.334484
0.334978
0.335471
0.335964
0.336458
0.336951
0.337444
0.337938
0.338431
0.338925
0.339418
0.339911
0.340405
0.340898
0.341391
0.341885
0.342378
0.342871
0.343365
0.343858
0.344351
0.344845
0.345338
0.345831
0.346325
0.346818
0.347311
0.347805
0.348298
0.348791
0.349285
0.349778
0.350271
0.350765
0.351258
0.351751
0.352245
0.352738
0.353231
0.353725
0.354218
0.354711
0.355205
0.355698
0.356191
0.356685
0.357178
0.357671
0.358165
0.358658
0.359151
0.359645
0.360138
0.360631
0.361125
0.361618
0.362111
0.362605
0.363098
0.363592
0.364085
0.364578
0.365072
0.365565
0.366058
0.366552
0.367045
0.367538
0.368032
0.368525
0.369018
0.369512
0.370005
0.370498
0.370992
0.371485
0.371978
0.372472
0.372965
0.373458
0.373952
0.374445
0.374938
0.375432
0.375925
0.376418
0.376912
0.377405
0.377898
0.378392
0.378885
0.379378
0.379872
0.380365
0.380858
0.381352
0.381845
0.382338
0.382832
0.383325
0.383818
0.384312
0.384805
0.385298
0.385792
0.386285
0.386778
0.387272
0.387765
0.388259
0.388752
0.389245
0.389739
0.390232
0.390725
0.391219
0.391712
0.392205
0.392699
0.393192
0.393685
0.394179
0.394672
0.395165
0.395659
0.396152
0.396645
0.397139
0.397632
0.398125
0.398619
0.399112
0.399605
0.400099
0.400592
0.401085
0.401579
0.402072
0.402565
0.403059
0.403552
0.404045
0.404539
0.405032
0.405525
0.406019
0.406512
0.407005
0.407499
0.407992
0.408485
0.408979
0.409472
0.409965
0.410459
0.410952
0.411445
0.411939
0.412432
0.412926
0.413419
0.413912
0.414406
0.414899
0.415392
0.415886
0.416379
0.416872
0.417366
0.417859
0.418352
0.418846
0.419339
0.419832
0.420326
0.420819
0.421312
0.421806
0.422299
0.422792
0.423286
0.423779
0.424272
0.424766
0.425259
0.425752
0.426246
0.426739
0.427232
0.427726
0.428219
0.428712
0.429206
0.429699
0.430192
0.430686
0.431179
0.431672
0.432166
0.432659
0.433152
0.433646
0.434139
0.434632
0.435126
0.435619
0.436112
0.436606
0.437099
0.437593
0.438086
0.438579
0.439073
0.439566
0.440059
0.440553
0.441046
0.441539
0.442033
0.442526
0.443019
0.443513
0.444006
0.444499
0.444993
0.445486
0.445979
0.446473
0.446966
0.447459
0.447953
0.448446
0.448939
0.449433
0.449926
0.450419
0.450913
0.451406
0.451899
0.452393
0.452886
0.453379
0.453873
0.454366
0.454859
0.455353
0.455846
0.456339
0.456833
0.457326
0.457819
0.458313
0.458806
0.459299
0.459793
0.460286
0.460779
0.461273
0.461766
0.462259
0.462753
0.463246
0.46374
0.464233
0.464726
0.46522
0.465713
0.466206
0.4667
0.467193
0.467686
0.46818
0.468673
0.469166
0.46966
0.470153
0.470646
0.47114
0.471633
0.472126
0.47262
0.473113
0.473606
0.4741
0.474593
0.475086
0.47558
0.476073
0.476566
0.47706
0.477553
0.478046
0.47854
0.479033
0.479526
0.48002
0.480513
0.481006
0.4815
0.481993
0.482486
0.48298
0.483473
0.483966
0.48446
0.484953
0.485446
0.48594
0.486433
0.486926
0.48742
0.487913
0.488407
0.4889
0.489393
0.489887
0.49038
0.490873
0.491367
0.49186
0.492353
0.492847
0.49334
0.493833
0.494327
0.49482
0.495313
0.495807
0.4963
0.496793
0.497287
0.49778
0.498273
0.498767
0.49926
0.499753
0.500247
0.50074
0.501233
0.501727
0.50222
0.502713
0.503207
0.5037
0.504193
0.504687
0.50518
0.505673
0.506167
0.50666
0.507153
0.507647
0.50814
0.508633
0.509127
0.50962
0.510113
0.510607
0.5111
0.511593
0.512087
0.51258
0.513074
0.513567
0.51406
0.514554
0.515047
0.51554
0.516034
0.516527
0.51702
0.517514
0.518007
0.5185
0.518994
0.519487
0.51998
0.520474
0.520967
0.52146
0.521954
0.522447
0.52294
0.523434
0.523927
0.52442
0.524914
0.525407
0.5259
0.526394
0.526887
0.52738
0.527874
0.528367
0.52886
0.529354
0.529847
0.53034
0.530834
0.531327
0.53182
0.532314
0.532807
0.5333
0.533794
0.534287
0.53478
0.535274
0.535767
0.53626
0.536754
0.537247
0.537741
0.538234
0.538727
0.539221
0.539714
0.540207
0.540701
0.541194
0.541687
0.542181
0.542674
0.543167
0.543661
0.544154
0.544647
0.545141
0.545634
0.546127
0.546621
0.547114
0.547607
0.548101
0.548594
0.549087
0.549581
0.550074
0.550567
0.551061
0.551554
0.552047
0.552541
0.553034
0.553527
0.554021
0.554514
0.555007
0.555501
0.555994
0.556487
0.556981
0.557474
0.557967
0.558461
0.558954
0.559447
0.559941
0.560434
0.560927
0.561421
0.561914
0.562407
0.562901
0.563394
0.563888
0.564381
0.564874
0.565368
0.565861
0.566354
0.566848
0.567341
0.567834
0.568328
0.568821
0.569314
0.569808
0.570301
0.570794
0.571288
0.571781
0.572274
0.572768
0.573261
0.573754
0.574248
0.574741
0.575234
0.575728
0.576221
0.576714
0.577208
0.577701
0.578194
0.578688
0.579181
0.579674
0.580168
0.580661
0.581154
0.581648
0.582141
0.582634
0.583128
0.583621
0.584114
0.584608
0.585101
0.585594
0.586088
0.586581
0.587074
0.587568
0.588061
0.588555
0.589048
0.589541
0.590035
0.590528
0.591021
0.591515
0.592008
0.592501
0.592995
0.593488
0.593981
0.594475
0.594968
0.595461
0.595955
0.596448
0.596941
0.597435
0.597928
0.598421
0.598915
0.599408
0.599901
0.600395
0.600888
0.601381
0.601875
0.602368
0.602861
0.603355
0.603848
0.604341
0.604835
0.605328
0.605821
0.606315
0.606808
0.607301
0.607795
0.608288
0.608781
0.609275
0.609768
0.610261
0.610755
0.611248
0.611741
0.612235
0.612728
0.613222
0.613715
0.614208
0.614702
0.615195
0.615688
0.616182
0.616675
0.617168
0.617662
0.618155
0.618648
0.619142
0.619635
0.620128
0.620622
0.621115
0.621608
0.622102
0.622595
0.623088
0.623582
0.624075
0.624568
0.625062
0.625555
0.626048
0.626542
0.627035
0.627528
0.628022
0.628515
0.629008
0.629502
0.629995
0.630488
0.630982
0.631475
0.631968
0.632462
0.632955
0.633448
0.633942
0.634435
0.634928
0.635422
0.635915
0.636408
0.636902
0.637395
0.637889
0.638382
0.638875
0.639369
0.639862
0.640355
0.640849
0.641342
0.641835
0.642329
0.642822
0.643315
0.643809
0.644302
0.644795
0.645289
0.645782
0.646275
0.646769
0.647262
0.647755
0.648249
0.648742
0.649235
0.649729
0.650222
0.650715
0.651209
0.651702
0.652195
0.652689
0.653182
0.653675
0.654169
0.654662
0.655155
0.655649
0.656142
0.656635
0.657129
0.657622
0.658115
0.658609
0.659102
0.659595
0.660089
0.660582
0.661075
0.661569
0.662062
0.662556
0.663049
0.663542
0.664036
0.664529
0.665022
0.665516
0.666009
0.666502
0.666996
0.667489
0.667982
0.668476
0.668969
0.669462
0.669956
0.670449
0.670942
0.671436
0.671929
0.672422
0.672916
0.673409
0.673902
0.674396
0.674889
0.675382
0.675876
0.676369
0.676862
0.677356
0.677849
0.678342
0.678836
0.679329
0.679822
0.680316
0.680809
0.681302
0.681796
0.682289
0.682782
0.683276
0.683769
0.684262
0.684756
0.685249
0.685742
0.686236
0.686729
0.687222
0.687716
0.688209
0.688703
0.689196
0.689689
0.690183
0.690676
0.691169
0.691663
0.692156
0.692649
0.693143
0.693636
0.694129
0.694623
0.695116
0.695609
0.696103
0.696596
0.697089
0.697583
0.698076
0.698569
0.699063
0.699556
0.700049
0.700543
0.701036
0.701529
0.702023
0.702516
0.703009
0.703503
0.703996
0.704489
0.704983
0.705476
0.705969
0.706463
0.706956
0.707449
0.707943
0.708436
0.708929
0.709423
0.709916
0.710409
0.710903
0.711396
0.711889
0.712383
0.712876
0.71337
0.713863
0.714356
0.71485
0.715343
0.715836
0.71633
0.716823
0.717316
0.71781
0.718303
0.718796
0.71929
0.719783
0.720276
0.72077
0.721263
0.721756
0.72225
0.722743
0.723236
0.72373
0.724223
0.724716
0.72521
0.725703
0.726196
0.72669
0.727183
0.727676
0.72817
0.728663
0.729156
0.72965
0.730143
0.730636
0.73113
0.731623
0.732116
0.73261
0.733103
0.733596
0.73409
0.734583
0.735076
0.73557
0.736063
0.736556
0.73705
0.737543
0.738037
0.73853
0.739023
0.739517
0.74001
0.740503
0.740997
0.74149
0.741983
0.742477
0.74297
0.743463
0.743957
0.74445
0.744943
0.745437
0.74593
0.746423
0.746917
0.74741
0.747903
0.748397
0.74889
0.749383
0.749877
0.75037
0.750863
0.751357
0.75185
0.752343
0.752837
0.75333
0.753823
0.754317
0.75481
0.755303
0.755797
0.75629
0.756783
0.757277
0.75777
0.758263
0.758757
0.75925
0.759743
0.760237
0.76073
0.761223
0.761717
0.76221
0.762704
0.763197
0.76369
0.764184
0.764677
0.76517
0.765664
0.766157
0.76665
0.767144
0.767637
0.76813
0.768624
0.769117
0.76961
0.770104
0.770597
0.77109
0.771584
0.772077
0.77257
0.773064
0.773557
0.77405
0.774544
0.775037
0.77553
0.776024
0.776517
0.77701
0.777504
0.777997
0.77849
0.778984
0.779477
0.77997
0.780464
0.780957
0.78145
0.781944
0.782437
0.78293
0.783424
0.783917
0.78441
0.784904
0.785397
0.78589
0.786384
0.786877
0.78737
0.787864
0.788357
0.788851
0.789344
0.789837
0.790331
0.790824
0.791317
0.791811
0.792304
0.792797
0.793291
0.793784
0.794277
0.794771
0.795264
0.795757
0.796251
0.796744
0.797237
0.797731
0.798224
0.798717
0.799211
0.799704
0.800197
0.800691
0.801184
0.801677
0.802171
0.802664
0.803157
0.803651
0.804144
0.804637
0.805131
0.805624
0.806117
0.806611
0.807104
0.807597
0.808091
0.808584
0.809077
0.809571
0.810064
0.810557
0.811051
0.811544
0.812037
0.812531
0.813024
0.813518
0.814011
0.814504
0.814998
0.815491
0.815984
0.816478
0.816971
0.817464
0.817958
0.818451
0.818944
0.819438
0.819931
0.820424
0.820918
0.821411
0.821904
0.822398
0.822891
0.823384
0.823878
0.824371
0.824864
0.825358
0.825851
0.826344
0.826838
0.827331
0.827824
0.828318
0.828811
0.829304
0.829798
0.830291
0.830784
0.831278
0.831771
0.832264
0.832758
0.833251
0.833744
0.834238
0.834731
0.835224
0.835718
0.836211
0.836704
0.837198
0.837691
0.838185
0.838678
0.839171
0.839665
0.840158
0.840651
0.841145
0.841638
0.842131
0.842625
0.843118
0.843611
0.844105
0.844598
0.845091
0.845585
0.846078
0.846571
0.847065
0.847558
0.848051
0.848545
0.849038
0.849531
0.850025
0.850518
0.851011
0.851505
0.851998
0.852491
0.852985
0.853478
0.853971
0.854465
0.854958
0.855451
0.855945
0.856438
0.856931
0.857425
0.857918
0.858411
0.858905
0.859398
0.859891
0.860385
0.860878
0.861371
0.861865
0.862358
0.862852
0.863345
0.863838
0.864332
0.864825
0.865318
0.865812
0.866305
0.866798
0.867292
0.867785
0.868278
0.868772
0.869265
0.869758
0.870252
0.870745
0.871238
0.871732
0.872225
0.872718
0.873212
0.873705
0.874198
0.874692
0.875185
0.875678
0.876172
0.876665
0.877158
0.877652
0.878145
0.878638
0.879132
0.879625
0.880118
0.880612
0.881105
0.881598
0.882092
0.882585
0.883078
0.883572
0.884065
0.884558
0.885052
0.885545
0.886038
0.886532
0.887025
0.887519
0.888012
0.888505
0.888999
0.889492
0.889985
0.890479
0.890972
0.891465
0.891959
0.892452
0.892945
0.893439
0.893932
0.894425
0.894919
0.895412
0.895905
0.896399
0.896892
0.897385
0.897879
0.898372
0.898865
0.899359
0.899852
0.900345
0.900839
0.901332
0.901825
0.902319
0.902812
0.903305
0.903799
0.904292
0.904785
0.905279
0.905772
0.906265
0.906759
0.907252
0.907745
0.908239
0.908732
0.909225
0.909719
0.910212
0.910705
0.911199
0.911692
0.912185
0.912679
0.913172
0.913666
0.914159
0.914652
0.915146
0.915639
0.916132
0.916626
0.917119
0.917612
0.918106
0.918599
0.919092
0.919586
0.920079
0.920572
0.921066
0.921559
0.922052
0.922546
0.923039
0.923532
0.924026
0.924519
0.925012
0.925506
0.925999
0.926492
0.926986
0.927479
0.927972
0.928466
0.928959
0.929452
0.929946
0.930439
0.930932
0.931426
0.931919
0.932412
0.932906
0.933399
0.933892
0.934386
0.934879
0.935372
0.935866
0.936359
0.936852
0.937346
0.937839
0.938333
0.938826
0.939319
0.939813
0.940306
0.940799
0.941293
0.941786
0.942279
0.942773
0.943266
0.943759
0.944253
0.944746
0.945239
0.945733
0.946226
0.946719
0.947213
0.947706
0.948199
0.948693
0.949186
0.949679
0.950173
0.950666
0.951159
0.951653
0.952146
0.952639
0.953133
0.953626
0.954119
0.954613
0.955106
0.955599
0.956093
0.956586
0.957079
0.957573
0.958066
0.958559
0.959053
0.959546
0.960039
0.960533
0.961026
0.961519
0.962013
0.962506
0.963
0.963493
0.963986
0.96448
0.964973
0.965466
0.96596
0.966453
0.966946
0.96744
0.967933
0.968426
0.96892
0.969413
0.969906
0.9704
0.970893
0.971386
0.97188
0.972373
0.972866
0.97336
0.973853
0.974346
0.97484
0.975333
0.975826
0.97632
0.976813
0.977306
0.9778
0.978293
0.978786
0.97928
0.979773
0.980266
0.98076
0.981253
0.981746
0.98224
0.982733
0.983226
0.98372
0.984213
0.984706
0.9852
0.985693
0.986186
0.98668
0.987173
0.987667
0.98816
0.988653
0.989147
0.98964
0.990133
0.990627
0.99112
0.991613
0.992107
0.9926
0.993093
0.993587
0.99408
0.994573
0.995067
0.99556
0.996053
0.996547
0.99704
0.997533
0.998027
0.99852
0.999013
0.999507
1


