# vtk DataFile Version 2.0
grid description
ASCII
DATASET UNSTRUCTURED_GRID

POINTS 9953 double
0 0 0.1
900 0 0.1
900 900 0.1
0 900 0.1
50 50 0.1
100 50 0.1
100 100 0.1
50 100 0.1
600 600 0.1
500 500 0.1
500 700 0.1
600 400 0.1
600 200 0.1
200 200 0.1
200 400 0.1
800 800 0.1
800 700 0.1
700 700 0.1
700 800 0.1
407 64 0.1
515 258 0.1
347 763 0.1
329 777 0.1
695 763 0.1
624 689 0.1
865 549 0.1
617 222 0.1
649 174 0.1
94 134 0.1
220 26 0.1
313 31 0.1
511 218 0.1
400 381 0.1
95 179 0.1
9 340 0.1
382 698 0.1
90 792 0.1
230 844 0.1
70 881 0.1
470 884 0.1
575 735 0.1
448 667 0.1
449 586 0.1
801 662 0.1
713 664 0.1
794 690 0.1
825 875 0.1
809 873 0.1
862 798 0.1
899 676 0.1
878 403 0.1
867 382 0.1
780 362 0.1
728 525 0.1
663 146 0.1
729 249 0.1
847 108 0.1
855 68 0.1
51 101 0.1
3 174 0.1
67 180 0.1
165 196 0.1
100 169 0.1
108 132 0.1
110 99 0.1
297 42 0.1
350 99 0.1
408 88 0.1
378 251 0.1
340 115 0.1
253 154 0.1
210 123 0.1
208 285 0.1
328 325 0.1
401 258 0.1
354 403 0.1
309 400 0.1
297 427 0.1
226 394 0.1
134 395 0.1
187 385 0.1
207 319 0.1
149 267 0.1
133 292 0.1
116 405 0.1
83 410 0.1
21 427 0.1
5 486 0.1
65 461 0.1
107 529 0.1
158 584 0.1
107 649 0.1
89 587 0.1
54 592 0.1
89 785 0.1
141 843 0.1
101 854 0.1
207 873 0.1
150 849 0.1
153 678 0.1
209 649 0.1
253 701 0.1
280 853 0.1
225 864 0.1
368 864 0.1
296 810 0.1
347 789 0.1
417 723 0.1
414 696 0.1
379 693 0.1
305 601 0.1
300 695 0.1
285 594 0.1
309 500 0.1
394 512 0.1
413 469 0.1
424 536 0.1
537 534 0.1
546 548 0.1
662 552 0.1
540 586 0.1
463 574 0.1
457 550 0.1
462 777 0.1
443 831 0.1
429 857 0.1
662 716 0.1
638 657 0.1
560 641 0.1
559 594 0.1
761 795 0.1
669 846 0.1
689 870 0.1
893 881 0.1
791 872 0.1
854 866 0.1
854 812 0.1
861 726 0.1
835 790 0.1
823 684 0.1
816 636 0.1
668 571 0.1
729 614 0.1
823 531 0.1
866 598 0.1
893 402 0.1
742 294 0.1
734 290 0.1
657 290 0.1
699 311 0.1
690 336 0.1
731 351 0.1
654 486 0.1
641 482 0.1
627 508 0.1
603 471 0.1
476 339 0.1
480 326 0.1
607 449 0.1
629 281 0.1
733 212 0.1
472 144 0.1
422 262 0.1
431 97 0.1
449 127 0.1
526 18 0.1
712 16 0.1
812 2 0.1
744 46 0.1
749 118 0.1
783 279 0.1
813 266 0.1
863 62 0.1
830 35 0.1
860 14 0.1
15 96 0.1
110 72 0.1
132 56 0.1
118 120 0.1
92 101 0.1
90 113 0.1
21 127 0.1
55 135 0.1
60 182 0.1
62 199 0.1
106 208 0.1
115 201 0.1
91 187 0.1
120 145 0.1
162 157 0.1
180 158 0.1
178 184 0.1
216 161 0.1
231 159 0.1
182 146 0.1
229 129 0.1
172 61 0.1
158 97 0.1
157 54 0.1
154 71 0.1
168 9 0.1
182 41 0.1
184 36 0.1
197 42 0.1
240 61 0.1
232 62 0.1
257 137 0.1
308 41 0.1
291 35 0.1
302 33 0.1
287 20 0.1
312 34 0.1
354 37 0.1
410 30 0.1
437 104 0.1
424 117 0.1
356 81 0.1
315 95 0.1
381 188 0.1
393 180 0.1
448 144 0.1
450 194 0.1
444 209 0.1
436 192 0.1
422 209 0.1
349 209 0.1
361 197 0.1
294 181 0.1
371 168 0.1
250 144 0.1
231 164 0.1
270 179 0.1
292 185 0.1
227 275 0.1
273 291 0.1
232 304 0.1
313 310 0.1
275 306 0.1
341 253 0.1
283 210 0.1
413 229 0.1
420 217 0.1
437 263 0.1
441 293 0.1
407 299 0.1
362 309 0.1
360 307 0.1
339 392 0.1
382 393 0.1
414 394 0.1
454 397 0.1
421 430 0.1
362 407 0.1
353 431 0.1
315 430 0.1
319 428 0.1
333 386 0.1
292 311 0.1
227 317 0.1
241 332 0.1
256 418 0.1
259 421 0.1
215 402 0.1
196 394 0.1
136 421 0.1
113 392 0.1
163 391 0.1
163 384 0.1
173 390 0.1
184 376 0.1
225 330 0.1
211 319 0.1
193 310 0.1
159 223 0.1
133 282 0.1
176 334 0.1
108 359 0.1
102 339 0.1
65 268 0.1
81 217 0.1
58 240 0.1
26 249 0.1
65 302 0.1
14 357 0.1
28 382 0.1
61 397 0.1
92 359 0.1
99 389 0.1
90 424 0.1
70 429 0.1
66 431 0.1
44 404 0.1
24 460 0.1
19 495 0.1
20 505 0.1
66 498 0.1
27 492 0.1
55 461 0.1
93 447 0.1
109 471 0.1
163 480 0.1
173 479 0.1
220 499 0.1
190 509 0.1
124 494 0.1
121 481 0.1
138 515 0.1
203 549 0.1
216 529 0.1
183 565 0.1
175 619 0.1
168 594 0.1
149 650 0.1
135 600 0.1
135 562 0.1
127 544 0.1
113 525 0.1
46 515 0.1
8 515 0.1
4 583 0.1
82 626 0.1
10 754 0.1
58 692 0.1
78 683 0.1
87 765 0.1
52 767 0.1
51 755 0.1
50 789 0.1
36 796 0.1
49 875 0.1
46 890 0.1
64 835 0.1
87 830 0.1
80 809 0.1
86 806 0.1
97 768 0.1
91 820 0.1
141 824 0.1
210 865 0.1
170 815 0.1
207 776 0.1
156 747 0.1
104 746 0.1
101 728 0.1
100 736 0.1
88 718 0.1
95 665 0.1
129 651 0.1
177 700 0.1
211 705 0.1
225 742 0.1
233 760 0.1
371 677 0.1
347 775 0.1
306 789 0.1
264 764 0.1
256 795 0.1
232 827 0.1
251 843 0.1
289 891 0.1
307 897 0.1
370 889 0.1
303 815 0.1
323 802 0.1
401 816 0.1
385 859 0.1
411 868 0.1
439 838 0.1
431 817 0.1
413 809 0.1
453 780 0.1
422 770 0.1
408 738 0.1
399 740 0.1
375 745 0.1
393 693 0.1
397 706 0.1
404 731 0.1
436 692 0.1
399 607 0.1
415 582 0.1
443 549 0.1
374 526 0.1
340 552 0.1
396 631 0.1
344 661 0.1
309 604 0.1
253 620 0.1
249 649 0.1
242 611 0.1
231 528 0.1
236 576 0.1
295 553 0.1
303 579 0.1
262 522 0.1
247 526 0.1
245 509 0.1
247 471 0.1
292 492 0.1
329 465 0.1
338 466 0.1
341 457 0.1
361 480 0.1
359 482 0.1
407 488 0.1
410 524 0.1
459 496 0.1
445 495 0.1
413 439 0.1
483 474 0.1
473 485 0.1
477 488 0.1
492 529 0.1
497 518 0.1
490 492 0.1
554 462 0.1
557 464 0.1
562 442 0.1
575 473 0.1
602 494 0.1
587 475 0.1
576 531 0.1
565 510 0.1
594 582 0.1
598 536 0.1
613 546 0.1
616 631 0.1
599 596 0.1
589 631 0.1
537 612 0.1
497 657 0.1
493 616 0.1
532 610 0.1
496 543 0.1
489 533 0.1
477 541 0.1
479 601 0.1
467 606 0.1
493 685 0.1
515 715 0.1
524 705 0.1
524 795 0.1
513 757 0.1
482 774 0.1
477 747 0.1
502 818 0.1
460 852 0.1
468 876 0.1
503 875 0.1
538 863 0.1
516 845 0.1
516 830 0.1
542 825 0.1
548 889 0.1
559 889 0.1
562 869 0.1
617 835 0.1
575 826 0.1
599 792 0.1
592 706 0.1
556 768 0.1
546 695 0.1
542 710 0.1
582 691 0.1
605 692 0.1
608 675 0.1
611 658 0.1
623 746 0.1
643 763 0.1
733 702 0.1
740 775 0.1
717 790 0.1
642 776 0.1
621 775 0.1
647 793 0.1
679 842 0.1
644 875 0.1
757 899 0.1
718 895 0.1
760 872 0.1
710 809 0.1
797 814 0.1
811 879 0.1
806 894 0.1
825 849 0.1
831 840 0.1
821 816 0.1
852 801 0.1
825 765 0.1
824 767 0.1
822 766 0.1
765 798 0.1
783 764 0.1
783 684 0.1
870 742 0.1
899 671 0.1
883 631 0.1
877 540 0.1
831 535 0.1
750 590 0.1
784 594 0.1
804 661 0.1
818 666 0.1
740 622 0.1
739 598 0.1
681 591 0.1
664 585 0.1
642 582 0.1
717 557 0.1
727 539 0.1
734 585 0.1
800 509 0.1
759 517 0.1
757 510 0.1
642 457 0.1
727 467 0.1
799 483 0.1
805 467 0.1
818 440 0.1
826 493 0.1
825 529 0.1
837 532 0.1
871 451 0.1
895 444 0.1
884 443 0.1
855 443 0.1
898 405 0.1
890 368 0.1
784 368 0.1
811 309 0.1
876 301 0.1
880 332 0.1
883 332 0.1
843 287 0.1
844 268 0.1
899 240 0.1
788 230 0.1
791 258 0.1
795 289 0.1
810 291 0.1
773 280 0.1
728 265 0.1
732 245 0.1
684 231 0.1
690 257 0.1
682 262 0.1
691 270 0.1
689 334 0.1
694 352 0.1
708 358 0.1
726 372 0.1
772 411 0.1
771 396 0.1
754 404 0.1
708 418 0.1
665 360 0.1
625 341 0.1
629 328 0.1
574 324 0.1
617 346 0.1
583 355 0.1
612 382 0.1
566 434 0.1
563 434 0.1
488 353 0.1
464 362 0.1
468 327 0.1
484 330 0.1
522 335 0.1
536 320 0.1
523 309 0.1
498 305 0.1
486 307 0.1
464 280 0.1
515 289 0.1
526 264 0.1
566 259 0.1
610 233 0.1
576 237 0.1
638 255 0.1
567 280 0.1
664 291 0.1
662 284 0.1
642 275 0.1
674 232 0.1
649 169 0.1
653 129 0.1
645 122 0.1
642 148 0.1
632 200 0.1
611 213 0.1
617 220 0.1
609 219 0.1
552 222 0.1
517 186 0.1
479 135 0.1
519 115 0.1
528 142 0.1
533 121 0.1
518 97 0.1
504 97 0.1
474 105 0.1
472 24 0.1
475 20 0.1
506 9 0.1
534 66 0.1
587 11 0.1
554 17 0.1
613 42 0.1
542 114 0.1
623 103 0.1
651 91 0.1
624 60 0.1
657 43 0.1
658 43 0.1
775 55 0.1
789 27 0.1
745 121 0.1
737 131 0.1
709 76 0.1
683 119 0.1
676 142 0.1
711 150 0.1
703 180 0.1
663 207 0.1
788 162 0.1
750 148 0.1
740 140 0.1
781 135 0.1
800 156 0.1
815 179 0.1
808 197 0.1
887 171 0.1
825 156 0.1
854 135 0.1
826 126 0.1
899 77 0.1
890 111 0.1
826 77 0.1
800 106 0.1
792 55 0.1
819 44 0.1
829 38 0.1
899 67 0.1
13 16 0.1
3 22 0.1
16 50 0.1
32 52 0.1
48 50 0.1
42 23 0.1
34 20 0.1
49 37 0.1
66 8 0.1
96 44 0.1
98 54 0.1
85 85 0.1
84 62 0.1
80 59 0.1
119 103 0.1
129 103 0.1
135 86 0.1
113 104 0.1
81 107 0.1
80 114 0.1
77 116 0.1
19 124 0.1
26 104 0.1
49 102 0.1
72 94 0.1
3 86 0.1
5 97 0.1
11 109 0.1
13 124 0.1
10 152 0.1
30 154 0.1
53 127 0.1
52 165 0.1
28 164 0.1
23 158 0.1
17 159 0.1
11 175 0.1
10 195 0.1
3 226 0.1
62 210 0.1
46 208 0.1
41 178 0.1
55 165 0.1
75 189 0.1
63 205 0.1
76 226 0.1
99 223 0.1
127 197 0.1
79 189 0.1
102 185 0.1
129 166 0.1
126 159 0.1
84 148 0.1
80 176 0.1
88 135 0.1
114 135 0.1
123 147 0.1
126 133 0.1
144 128 0.1
150 134 0.1
169 119 0.1
173 158 0.1
171 139 0.1
167 150 0.1
155 154 0.1
135 159 0.1
137 182 0.1
141 185 0.1
173 213 0.1
171 211 0.1
169 206 0.1
171 188 0.1
179 182 0.1
186 191 0.1
185 220 0.1
201 219 0.1
215 199 0.1
204 184 0.1
189 184 0.1
214 175 0.1
210 178 0.1
206 182 0.1
183 169 0.1
192 132 0.1
192 139 0.1
193 149 0.1
199 161 0.1
208 100 0.1
207 88 0.1
211 81 0.1
204 83 0.1
170 87 0.1
198 92 0.1
166 107 0.1
163 113 0.1
163 98 0.1
154 109 0.1
142 107 0.1
136 85 0.1
140 88 0.1
143 92 0.1
158 88 0.1
173 63 0.1
173 56 0.1
171 55 0.1
158 36 0.1
171 31 0.1
173 39 0.1
176 46 0.1
178 4 0.1
196 6 0.1
194 15 0.1
192 65 0.1
215 58 0.1
216 26 0.1
211 20 0.1
198 6 0.1
244 22 0.1
252 42 0.1
257 6 0.1
260 53 0.1
259 59 0.1
227 49 0.1
225 57 0.1
216 67 0.1
236 105 0.1
234 109 0.1
249 103 0.1
262 98 0.1
259 85 0.1
243 78 0.1
270 97 0.1
270 107 0.1
314 108 0.1
295 104 0.1
278 96 0.1
283 90 0.1
277 41 0.1
269 75 0.1
267 36 0.1
263 82 0.1
263 8 0.1
276 18 0.1
283 19 0.1
286 8 0.1
323 0 0.1
323 7 0.1
316 27 0.1
330 37 0.1
330 31 0.1
339 20 0.1
339 18 0.1
352 17 0.1
384 12 0.1
401 9 0.1
386 44 0.1
373 45 0.1
370 40 0.1
349 31 0.1
383 60 0.1
399 48 0.1
427 49 0.1
421 102 0.1
411 75 0.1
395 107 0.1
387 83 0.1
349 95 0.1
372 76 0.1
355 71 0.1
382 47 0.1
343 67 0.1
324 86 0.1
341 96 0.1
341 98 0.1
319 146 0.1
323 154 0.1
321 168 0.1
344 151 0.1
366 148 0.1
354 122 0.1
352 115 0.1
382 122 0.1
385 117 0.1
397 122 0.1
419 135 0.1
417 167 0.1
384 140 0.1
372 168 0.1
389 169 0.1
417 169 0.1
418 173 0.1
427 199 0.1
409 216 0.1
408 183 0.1
406 223 0.1
359 192 0.1
372 183 0.1
348 182 0.1
377 171 0.1
324 174 0.1
331 215 0.1
334 222 0.1
328 226 0.1
293 213 0.1
278 214 0.1
276 205 0.1
[...]
CELL_DATA 19886
SCALARS scalars float 1
LOOKUP_TABLE lut 
0
5.02892e-05
0.000100578
0.000150867
0.000201157
0.000251446
0.000301735
0.000352024
0.000402313
0.000452602
0.000502892
0.000553181
0.00060347
0.000653759
0.000704048
0.000754337
0.000804627
0.000854916
0.000905205
0.000955494
0.00100578
0.00105607
0.00110636
0.00115665
0.00120694
0.00125723
0.00130752
0.00135781
0.0014081
0.00145839
0.00150867
0.00155896
0.00160925
0.00165954
0.00170983
0.00176012
0.00181041
0.0018607
0.00191099
0.00196128
0.00201157
0.00206186
0.00211214
0.00216243
0.00221272
0.00226301
0.0023133
0.00236359
0.00241388
0.00246417
0.00251446
0.00256475
0.00261504
0.00266533
0.00271561
0.0027659
0.00281619
0.00286648
0.00291677
0.00296706
0.00301735
0.00306764
0.00311793
0.00316822
0.00321851
0.0032688
0.00331908
0.00336937
0.00341966
0.00346995
0.00352024
0.00357053
0.00362082
0.00367111
0.0037214
0.00377169
0.00382198
0.00387227
0.00392255
0.00397284
0.00402313
0.00407342
0.00412371
0.004174
0.00422429
0.00427458
0.00432487
0.00437516
0.00442545
0.00447574
0.00452602
0.00457631
0.0046266
0.00467689
0.00472718
0.00477747
0.00482776
0.00487805
0.00492834
0.00497863
0.00502892
0.00507921
0.00512949
0.00517978
0.00523007
0.00528036
0.00533065
0.00538094
0.00543123
0.00548152
0.00553181
0.0055821
0.00563239
0.00568268
0.00573296
0.00578325
0.00583354
0.00588383
0.00593412
0.00598441
0.0060347
0.00608499
0.00613528
0.00618557
0.00623586
0.00628615
0.00633643
0.00638672
0.00643701
0.0064873
0.00653759
0.00658788
0.00663817
0.00668846
0.00673875
0.00678904
0.00683933
0.00688962
0.0069399
0.00699019
0.00704048
0.00709077
0.00714106
0.00719135
0.00724164
0.00729193
0.00734222
0.00739251
0.0074428
0.00749309
0.00754337
0.00759366
0.00764395
0.00769424
0.00774453
0.00779482
0.00784511
0.0078954
0.00794569
0.00799598
0.00804627
0.00809656
0.00814684
0.00819713
0.00824742
0.00829771
0.008348
0.00839829
0.00844858
0.00849887
0.00854916
0.00859945
0.00864974
0.00870003
0.00875031
0.0088006
0.00885089
0.00890118
0.00895147
0.00900176
0.00905205
0.00910234
0.00915263
0.00920292
0.00925321
0.0093035
0.00935378
0.00940407
0.00945436
0.00950465
0.00955494
0.00960523
0.00965552
0.00970581
0.0097561
0.00980639
0.00985668
0.00990697
0.00995725
0.0100075
0.0100578
0.0101081
0.0101584
0.0102087
0.010259
0.0103093
0.0103596
0.0104099
0.0104601
0.0105104
0.0105607
0.010611
0.0106613
0.0107116
0.0107619
0.0108122
0.0108625
0.0109127
0.010963
0.0110133
0.0110636
0.0111139
0.0111642
0.0112145
0.0112648
0.0113151
0.0113654
0.0114156
0.0114659
0.0115162
0.0115665
0.0116168
0.0116671
0.0117174
0.0117677
0.011818
0.0118682
0.0119185
0.0119688
0.0120191
0.0120694
0.0121197
0.01217
0.0122203
0.0122706
0.0123208
0.0123711
0.0124214
0.0124717
0.012522
0.0125723
0.0126226
0.0126729
0.0127232
0.0127734
0.0128237
0.012874
0.0129243
0.0129746
0.0130249
0.0130752
0.0131255
0.0131758
0.013226
0.0132763
0.0133266
0.0133769
0.0134272
0.0134775
0.0135278
0.0135781
0.0136284
0.0136787
0.0137289
0.0137792
0.0138295
0.0138798
0.0139301
0.0139804
0.0140307
0.014081
0.0141313
0.0141815
0.0142318
0.0142821
0.0143324
0.0143827
0.014433
0.0144833
0.0145336
0.0145839
0.0146341
0.0146844
0.0147347
0.014785
0.0148353
0.0148856
0.0149359
0.0149862
0.0150365
0.0150867
0.015137
0.0151873
0.0152376
0.0152879
0.0153382
0.0153885
0.0154388
0.0154891
0.0155394
0.0155896
0.0156399
0.0156902
0.0157405
0.0157908
0.0158411
0.0158914
0.0159417
0.015992
0.0160422
0.0160925
0.0161428
0.0161931
0.0162434
0.0162937
0.016344
0.0163943
0.0164446
0.0164948
0.0165451
0.0165954
0.0166457
0.016696
0.0167463
0.0167966
0.0168469
0.0168972
0.0169474
0.0169977
0.017048
0.0170983
0.0171486
0.0171989
0.0172492
0.0172995
0.0173498
0.0174001
0.0174503
0.0175006
0.0175509
0.0176012
0.0176515
0.0177018
0.0177521
0.0178024
0.0178527
0.0179029
0.0179532
0.0180035
0.0180538
0.0181041
0.0181544
0.0182047
0.018255
0.0183053
0.0183555
0.0184058
0.0184561
0.0185064
0.0185567
0.018607
0.0186573
0.0187076
0.0187579
0.0188081
0.0188584
0.0189087
0.018959
0.0190093
0.0190596
0.0191099
0.0191602
0.0192105
0.0192607
0.019311
0.0193613
0.0194116
0.0194619
0.0195122
0.0195625
0.0196128
0.0196631
0.0197134
0.0197636
0.0198139
0.0198642
0.0199145
0.0199648
0.0200151
0.0200654
0.0201157
0.020166
0.0202162
0.0202665
0.0203168
0.0203671
0.0204174
0.0204677
0.020518
0.0205683
0.0206186
0.0206688
0.0207191
0.0207694
0.0208197
0.02087
0.0209203
0.0209706
0.0210209
0.0210712
0.0211214
0.0211717
0.021222
0.0212723
0.0213226
0.0213729
0.0214232
0.0214735
0.0215238
0.0215741
0.0216243
0.0216746
0.0217249
0.0217752
0.0218255
0.0218758
0.0219261
0.0219764
0.0220267
0.0220769
0.0221272
0.0221775
0.0222278
0.0222781
0.0223284
0.0223787
0.022429
0.0224793
0.0225295
0.0225798
0.0226301
0.0226804
0.0227307
0.022781
0.0228313
0.0228816
0.0229319
0.0229821
0.0230324
0.0230827
0.023133
0.0231833
0.0232336
0.0232839
0.0233342
0.0233845
0.0234347
0.023485
0.0235353
0.0235856
0.0236359
0.0236862
0.0237365
0.0237868
0.0238371
0.0238874
0.0239376
0.0239879
0.0240382
0.0240885
0.0241388
0.0241891
0.0242394
0.0242897
0.02434
0.0243902
0.0244405
0.0244908
0.0245411
0.0245914
0.0246417
0.024692
0.0247423
0.0247926
0.0248428
0.0248931
0.0249434
0.0249937
0.025044
0.0250943
0.0251446
0.0251949
0.0252452
0.0252954
0.0253457
0.025396
0.0254463
0.0254966
0.0255469
0.0255972
0.0256475
0.0256978
0.0257481
0.0257983
0.0258486
0.0258989
0.0259492
0.0259995
0.0260498
0.0261001
0.0261504
0.0262007
0.0262509
0.0263012
0.0263515
0.0264018
0.0264521
0.0265024
0.0265527
0.026603
0.0266533
0.0267035
0.0267538
0.0268041
0.0268544
0.0269047
0.026955
0.0270053
0.0270556
0.0271059
0.0271561
0.0272064
0.0272567
0.027307
0.0273573
0.0274076
0.0274579
0.0275082
0.0275585
0.0276088
0.027659
0.0277093
0.0277596
0.0278099
0.0278602
0.0279105
0.0279608
0.0280111
0.0280614
0.0281116
0.0281619
0.0282122
0.0282625
0.0283128
0.0283631
0.0284134
0.0284637
0.028514
0.0285642
0.0286145
0.0286648
0.0287151
0.0287654
0.0288157
0.028866
0.0289163
0.0289666
0.0290168
0.0290671
0.0291174
0.0291677
0.029218
0.0292683
0.0293186
0.0293689
0.0294192
0.0294694
0.0295197
0.02957
0.0296203
0.0296706
0.0297209
0.0297712
0.0298215
0.0298718
0.0299221
0.0299723
0.0300226
0.0300729
0.0301232
0.0301735
0.0302238
0.0302741
0.0303244
0.0303747
0.0304249
0.0304752
0.0305255
0.0305758
0.0306261
0.0306764
0.0307267
0.030777
0.0308273
0.0308775
0.0309278
0.0309781
0.0310284
0.0310787
0.031129
0.0311793
0.0312296
0.0312799
0.0313301
0.0313804
0.0314307
0.031481
0.0315313
0.0315816
0.0316319
0.0316822
0.0317325
0.0317828
0.031833
0.0318833
0.0319336
0.0319839
0.0320342
0.0320845
0.0321348
0.0321851
0.0322354
0.0322856
0.0323359
0.0323862
0.0324365
0.0324868
0.0325371
0.0325874
0.0326377
0.032688
0.0327382
0.0327885
0.0328388
0.0328891
0.0329394
0.0329897
0.03304
0.0330903
0.0331406
0.0331908
0.0332411
0.0332914
0.0333417
0.033392
0.0334423
0.0334926
0.0335429
0.0335932
0.0336434
0.0336937
0.033744
0.0337943
0.0338446
0.0338949
0.0339452
0.0339955
0.0340458
0.0340961
0.0341463
0.0341966
0.0342469
0.0342972
0.0343475
0.0343978
0.0344481
0.0344984
0.0345487
0.0345989
0.0346492
0.0346995
0.0347498
0.0348001
0.0348504
0.0349007
0.034951
0.0350013
0.0350515
0.0351018
0.0351521
0.0352024
0.0352527
0.035303
0.0353533
0.0354036
0.0354539
0.0355041
0.0355544
0.0356047
0.035655
0.0357053
0.0357556
0.0358059
0.0358562
0.0359065
0.0359568
0.036007
0.0360573
0.0361076
0.0361579
0.0362082
0.0362585
0.0363088
0.0363591
0.0364094
0.0364596
0.0365099
0.0365602
0.0366105
0.0366608
0.0367111
0.0367614
0.0368117
0.036862
0.0369122
0.0369625
0.0370128
0.0370631
0.0371134
0.0371637
0.037214
0.0372643
0.0373146
0.0373648
0.0374151
0.0374654
0.0375157
0.037566
0.0376163
0.0376666
0.0377169
0.0377672
0.0378175
0.0378677
0.037918
0.0379683
0.0380186
0.0380689
0.0381192
0.0381695
0.0382198
0.0382701
0.0383203
0.0383706
0.0384209
0.0384712
0.0385215
0.0385718
0.0386221
0.0386724
0.0387227
0.0387729
0.0388232
0.0388735
0.0389238
0.0389741
0.0390244
0.0390747
0.039125
0.0391753
0.0392255
0.0392758
0.0393261
0.0393764
0.0394267
0.039477
0.0395273
0.0395776
0.0396279
0.0396781
0.0397284
0.0397787
0.039829
0.0398793
0.0399296
0.0399799
0.0400302
0.0400805
0.0401308
0.040181
0.0402313
0.0402816
0.0403319
0.0403822
0.0404325
0.0404828
0.0405331
0.0405834
0.0406336
0.0406839
0.0407342
0.0407845
0.0408348
0.0408851
0.0409354
0.0409857
0.041036
0.0410862
0.0411365
0.0411868
0.0412371
0.0412874
0.0413377
0.041388
0.0414383
0.0414886
0.0415388
0.0415891
0.0416394
0.0416897
0.04174
0.0417903
0.0418406
0.0418909
0.0419412
0.0419915
0.0420417
0.042092
0.0421423
0.0421926
0.0422429
0.0422932
0.0423435
0.0423938
0.0424441
0.0424943
0.0425446
0.0425949
0.0426452
0.0426955
0.0427458
0.0427961
0.0428464
0.0428967
0.0429469
0.0429972
0.0430475
0.0430978
0.0431481
0.0431984
0.0432487
0.043299
0.0433493
0.0433995
0.0434498
0.0435001
0.0435504
0.0436007
0.043651
0.0437013
0.0437516
0.0438019
0.0438521
0.0439024
0.0439527
0.044003
0.0440533
0.0441036
0.0441539
0.0442042
0.0442545
0.0443048
0.044355
0.0444053
0.0444556
0.0445059
0.0445562
0.0446065
0.0446568
0.0447071
0.0447574
0.0448076
0.0448579
0.0449082
0.0449585
0.0450088
0.0450591
0.0451094
0.0451597
0.04521
0.0452602
0.0453105
0.0453608
0.0454111
0.0454614
0.0455117
0.045562
0.0456123
0.0456626
0.0457128
0.0457631
0.0458134
0.0458637
0.045914
0.0459643
0.0460146
0.0460649
0.0461152
0.0461655
0.0462157
0.046266
0.0463163
0.0463666
0.0464169
0.0464672
0.0465175
0.0465678
0.0466181
0.0466683
0.0467186
0.0467689
0.0468192
0.0468695
0.0469198
0.0469701
0.0470204
0.0470707
0.0471209
0.0471712
0.0472215
0.0472718
0.0473221
0.0473724
0.0474227
0.047473
0.0475233
0.0475735
0.0476238
0.0476741
0.0477244
0.0477747
0.047825
0.0478753
0.0479256
0.0479759
0.0480262
0.0480764
0.0481267
0.048177
0.0482273
0.0482776
0.0483279
0.0483782
0.0484285
0.0484788
0.048529
0.0485793
0.0486296
0.0486799
0.0487302
0.0487805
0.0488308
0.0488811
0.0489314
0.0489816
0.0490319
0.0490822
0.0491325
0.0491828
0.0492331
0.0492834
0.0493337
0.049384
0.0494342
0.0494845
0.0495348
0.0495851
0.0496354
0.0496857
0.049736
0.0497863
0.0498366
0.0498868
0.0499371
0.0499874
0.0500377
0.050088
0.0501383
0.0501886
0.0502389
0.0502892
0.0503395
0.0503897
0.05044
0.0504903
0.0505406
0.0505909
0.0506412
0.0506915
0.0507418
0.0507921
0.0508423
0.0508926
0.0509429
0.0509932
0.0510435
0.0510938
0.0511441
0.0511944
0.0512447
0.0512949
0.0513452
0.0513955
0.0514458
0.0514961
0.0515464
0.0515967
0.051647
0.0516973
0.0517475
0.0517978
0.0518481
0.0518984
0.0519487
0.051999
0.0520493
0.0520996
0.0521499
0.0522002
0.0522504
0.0523007
0.052351
0.0524013
0.0524516
0.0525019
0.0525522
0.0526025
0.0526528
0.052703
0.0527533
0.0528036
0.0528539
0.0529042
0.0529545
0.0530048
0.0530551
0.0531054
0.0531556
0.0532059
0.0532562
0.0533065
0.0533568
0.0534071
0.0534574
0.0535077
0.053558
0.0536082
0.0536585
0.0537088
0.0537591
0.0538094
0.0538597
0.05391
0.0539603
0.0540106
0.0540608
0.0541111
0.0541614
0.0542117
0.054262
0.0543123
0.0543626
0.0544129
0.0544632
0.0545135
0.0545637
0.054614
0.0546643
0.0547146
0.0547649
0.0548152
0.0548655
0.0549158
0.0549661
0.0550163
0.0550666
0.0551169
0.0551672
0.0552175
0.0552678
0.0553181
0.0553684
0.0554187
0.0554689
0.0555192
0.0555695
0.0556198
0.0556701
0.0557204
0.0557707
0.055821
0.0558713
0.0559215
0.0559718
0.0560221
0.0560724
0.0561227
0.056173
0.0562233
0.0562736
0.0563239
0.0563742
0.0564244
0.0564747
0.056525
0.0565753
0.0566256
0.0566759
0.0567262
0.0567765
0.0568268
0.056877
0.0569273
0.0569776
0.0570279
0.0570782
0.0571285
0.0571788
0.0572291
0.0572794
0.0573296
0.0573799
0.0574302
0.0574805
0.0575308
0.0575811
0.0576314
0.0576817
0.057732
0.0577822
0.0578325
0.0578828
0.0579331
0.0579834
0.0580337
0.058084
0.0581343
0.0581846
0.0582349
0.0582851
0.0583354
0.0583857
0.058436
0.0584863
0.0585366
0.0585869
0.0586372
0.0586875
0.0587377
0.058788
0.0588383
0.0588886
0.0589389
0.0589892
0.0590395
0.0590898
0.0591401
0.0591903
0.0592406
0.0592909
0.0593412
0.0593915
0.0594418
0.0594921
0.0595424
0.0595927
0.0596429
0.0596932
0.0597435
0.0597938
0.0598441
0.0598944
0.0599447
0.059995
0.0600453
0.0600955
0.0601458
0.0601961
0.0602464
0.0602967
0.060347
0.0603973
0.0604476
0.0604979
0.0605482
0.0605984
0.0606487
0.060699
0.0607493
0.0607996
0.0608499
0.0609002
0.0609505
0.0610008
0.061051
0.0611013
0.0611516
0.0612019
0.0612522
0.0613025
0.0613528
0.0614031
0.0614534
0.0615036
0.0615539
0.0616042
0.0616545
0.0617048
0.0617551
0.0618054
0.0618557
0.061906
0.0619562
0.0620065
0.0620568
0.0621071
0.0621574
0.0622077
0.062258
0.0623083
0.0623586
0.0624089
0.0624591
0.0625094
0.0625597
0.06261
0.0626603
0.0627106
0.0627609
0.0628112
0.0628615
0.0629117
0.062962
0.0630123
0.0630626
0.0631129
0.0631632
0.0632135
0.0632638
0.0633141
0.0633643
0.0634146
0.0634649
0.0635152
0.0635655
0.0636158
0.0636661
0.0637164
0.0637667
0.0638169
0.0638672
0.0639175
0.0639678
0.0640181
0.0640684
0.0641187
0.064169
0.0642193
0.0642695
0.0643198
0.0643701
0.0644204
0.0644707
0.064521
0.0645713
0.0646216
0.0646719
0.0647222
0.0647724
0.0648227
0.064873
0.0649233
0.0649736
0.0650239
0.0650742
0.0651245
0.0651748
0.065225
0.0652753
0.0653256
0.0653759
0.0654262
0.0654765
0.0655268
0.0655771
0.0656274
0.0656776
0.0657279
0.0657782
0.0658285
0.0658788
0.0659291
0.0659794
0.0660297
0.06608
0.0661302
0.0661805
0.0662308
0.0662811
0.0663314
0.0663817
0.066432
0.0664823
0.0665326
0.0665829
0.0666331
0.0666834
0.0667337
0.066784
0.0668343
0.0668846
0.0669349
0.0669852
0.0670355
0.0670857
0.067136
0.0671863
0.0672366
0.0672869
0.0673372
0.0673875
0.0674378
0.0674881
0.0675383
0.0675886
0.0676389
0.0676892
0.0677395
0.0677898
0.0678401
0.0678904
0.0679407
0.0679909
0.0680412
0.0680915
0.0681418
0.0681921
0.0682424
0.0682927
0.068343
0.0683933
0.0684436
0.0684938
0.0685441
0.0685944
0.0686447
0.068695
0.0687453
0.0687956
0.0688459
0.0688962
0.0689464
0.0689967
0.069047
0.0690973
0.0691476
0.0691979
0.0692482
0.0692985
0.0693488
0.069399
0.0694493
0.0694996
0.0695499
0.0696002
0.0696505
0.0697008
0.0697511
0.0698014
0.0698516
0.0699019
0.0699522
0.0700025
0.0700528
0.0701031
0.0701534
0.0702037
0.070254
0.0703042
0.0703545
0.0704048
0.0704551
0.0705054
0.0705557
0.070606
0.0706563
0.0707066
0.0707569
0.0708071
0.0708574
0.0709077
0.070958
0.0710083
0.0710586
0.0711089
0.0711592
0.0712095
0.0712597
0.07131
0.0713603
0.0714106
0.0714609
0.0715112
0.0715615
0.0716118
0.0716621
0.0717123
0.0717626
0.0718129
0.0718632
0.0719135
0.0719638
0.0720141
0.0720644
0.0721147
0.0721649
0.0722152
0.0722655
0.0723158
0.0723661
0.0724164
0.0724667
0.072517
0.0725673
0.0726176
0.0726678
0.0727181
0.0727684
0.0728187
0.072869
0.0729193
0.0729696
0.0730199
0.0730702
0.0731204
0.0731707
0.073221
0.0732713
0.0733216
0.0733719
0.0734222
0.0734725
0.0735228
0.073573
0.0736233
0.0736736
0.0737239
0.0737742
0.0738245
0.0738748
0.0739251
0.0739754
0.0740256
0.0740759
0.0741262
0.0741765
0.0742268
0.0742771
0.0743274
0.0743777
0.074428
0.0744782
0.0745285
0.0745788
0.0746291
0.0746794
0.0747297
0.07478
0.0748303
0.0748806
0.0749309
0.0749811
0.0750314
0.0750817
0.075132
0.0751823
0.0752326
0.0752829
0.0753332
0.0753835
0.0754337
0.075484
0.0755343
0.0755846
0.0756349
0.0756852
0.0757355
0.0757858
0.0758361
0.0758863
0.0759366
0.0759869
0.0760372
0.0760875
0.0761378
0.0761881
0.0762384
0.0762887
0.0763389
0.0763892
0.0764395
0.0764898
0.0765401
0.0765904
0.0766407
0.076691
0.0767413
0.0767916
0.0768418
0.0768921
0.0769424
0.0769927
0.077043
0.0770933
0.0771436
0.0771939
0.0772442
0.0772944
0.0773447
0.077395
0.0774453
0.0774956
0.0775459
0.0775962
0.0776465
0.0776968
0.077747
0.0777973
0.0778476
0.0778979
0.0779482
0.0779985
0.0780488
0.0780991
0.0781494
0.0781996
0.0782499
0.0783002
0.0783505
0.0784008
0.0784511
0.0785014
0.0785517
0.078602
0.0786523
0.0787025
0.0787528
0.0788031
0.0788534
0.0789037
0.078954
0.0790043
0.0790546
0.0791049
0.0791551
0.0792054
0.0792557
0.079306
0.0793563
0.0794066
0.0794569
0.0795072
0.0795575
0.0796077
0.079658
0.0797083
0.0797586
0.0798089
0.0798592
0.0799095
0.0799598
0.0800101
0.0800603
0.0801106
0.0801609
0.0802112
0.0802615
0.0803118
0.0803621
0.0804124
0.0804627
0.0805129
0.0805632
0.0806135
0.0806638
0.0807141
0.0807644
0.0808147
0.080865
0.0809153
0.0809656
0.0810158
0.0810661
0.0811164
0.0811667
0.081217
0.0812673
0.0813176
0.0813679
0.0814182
0.0814684
0.0815187
0.081569
0.0816193
0.0816696
0.0817199
0.0817702
0.0818205
0.0818708
0.081921
0.0819713
0.0820216
0.0820719
0.0821222
0.0821725
0.0822228
0.0822731
0.0823234
0.0823736
0.0824239
0.0824742
0.0825245
0.0825748
0.0826251
0.0826754
0.0827257
0.082776
0.0828263
0.0828765
0.0829268
0.0829771
0.0830274
0.0830777
0.083128
0.0831783
0.0832286
0.0832789
0.0833291
0.0833794
0.0834297
0.08348
0.0835303
0.0835806
0.0836309
0.0836812
0.0837315
0.0837817
0.083832
0.0838823
0.0839326
0.0839829
0.0840332
0.0840835
0.0841338
0.0841841
0.0842343
0.0842846
0.0843349
0.0843852
0.0844355
0.0844858
0.0845361
0.0845864
0.0846367
0.0846869
0.0847372
0.0847875
0.0848378
0.0848881
0.0849384
0.0849887
0.085039
0.0850893
0.0851396
0.0851898
0.0852401
0.0852904
0.0853407
0.085391
0.0854413
0.0854916
0.0855419
0.0855922
0.0856424
0.0856927
0.085743
0.0857933
0.0858436
0.0858939
0.0859442
0.0859945
0.0860448
0.086095
0.0861453
0.0861956
0.0862459
0.0862962
0.0863465
0.0863968
0.0864471
0.0864974
0.0865476
0.0865979
0.0866482
0.0866985
0.0867488
0.0867991
0.0868494
0.0868997
0.08695
0.0870003
0.0870505
0.0871008
0.0871511
0.0872014
0.0872517
0.087302
0.0873523
0.0874026
0.0874529
0.0875031
0.0875534
0.0876037
0.087654
0.0877043
0.0877546
0.0878049
0.0878552
0.0879055
0.0879557
0.088006
0.0880563
0.0881066
0.0881569
0.0882072
0.0882575
0.0883078
0.0883581
0.0884083
0.0884586
0.0885089
0.0885592
0.0886095
0.0886598
0.0887101
0.0887604
0.0888107
0.088861
0.0889112
0.0889615
0.0890118
0.0890621
0.0891124
0.0891627
0.089213
0.0892633
0.0893136
0.0893638
0.0894141
0.0894644
0.0895147
0.089565
0.0896153
0.0896656
0.0897159
0.0897662
0.0898164
0.0898667
0.089917
0.0899673
0.0900176
0.0900679
0.0901182
0.0901685
0.0902188
0.090269
0.0903193
0.0903696
0.0904199
0.0904702
0.0905205
0.0905708
0.0906211
0.0906714
0.0907216
0.0907719
0.0908222
0.0908725
0.0909228
0.0909731
0.0910234
0.0910737
0.091124
0.0911743
0.0912245
0.0912748
0.0913251
0.0913754
0.0914257
0.091476
0.0915263
0.0915766
0.0916269
0.0916771
0.0917274
0.0917777
0.091828
0.0918783
0.0919286
0.0919789
0.0920292
0.0920795
0.0921297
0.09218
0.0922303
0.0922806
0.0923309
0.0923812
0.0924315
0.0924818
0.0925321
0.0925823
0.0926326
0.0926829
0.0927332
0.0927835
0.0928338
0.0928841
0.0929344
0.0929847
0.093035
0.0930852
0.0931355
0.0931858
0.0932361
0.0932864
0.0933367
0.093387
0.0934373
0.0934876
0.0935378
0.0935881
0.0936384
0.0936887
0.093739
0.0937893
0.0938396
0.0938899
0.0939402
0.0939904
0.0940407
0.094091
0.0941413
0.0941916
0.0942419
0.0942922
0.0943425
0.0943928
0.094443
0.0944933
0.0945436
0.0945939
0.0946442
0.0946945
0.0947448
0.0947951
0.0948454
0.0948956
0.0949459
0.0949962
0.0950465
0.0950968
0.0951471
0.0951974
0.0952477
0.095298
0.0953483
0.0953985
0.0954488
0.0954991
0.0955494
0.0955997
0.09565
0.0957003
0.0957506
0.0958009
0.0958511
0.0959014
0.0959517
0.096002
0.0960523
0.0961026
0.0961529
0.0962032
0.0962535
0.0963037
0.096354
0.0964043
0.0964546
0.0965049
0.0965552
0.0966055
0.0966558
0.0967061
0.0967563
0.0968066
0.0968569
0.0969072
0.0969575
0.0970078
0.0970581
0.0971084
0.0971587
0.097209
0.0972592
0.0973095
0.0973598
0.0974101
0.0974604
0.0975107
0.097561
0.0976113
0.0976616
0.0977118
0.0977621
0.0978124
0.0978627
0.097913
0.0979633
0.0980136
0.0980639
0.0981142
0.0981644
0.0982147
0.098265
0.0983153
0.0983656
0.0984159
0.0984662
0.0985165
0.0985668
0.098617
0.0986673
0.0987176
0.0987679
0.0988182
0.0988685
0.0989188
0.0989691
0.0990194
0.0990697
0.0991199
0.0991702
0.0992205
0.0992708
0.0993211
0.0993714
0.0994217
0.099472
0.0995223
0.0995725
0.0996228
0.0996731
0.0997234
0.0997737
0.099824
0.0998743
0.0999246
0.0999749
0.100025
0.100075
0.100126
0.100176
0.100226
0.100277