# vtk DataFile Version 2.0
grid description
ASCII
DATASET UNSTRUCTURED_GRID

POINTS 119 double
0 0 0.1
900 0 0.1
900 900 0.1
0 900 0.1
50 50 0.1
100 50 0.1
100 100 0.1
50 100 0.1
600 600 0.1
500 500 0.1
500 700 0.1
600 400 0.1
600 200 0.1
200 200 0.1
200 400 0.1
800 800 0.1
800 700 0.1
700 700 0.1
700 800 0.1
436 418 0.1
40 616 0.1
6 720 0.1
709 798 0.1
831 221 0.1
842 25 0.1
620 10 0.1
281 132 0.1
117 233 0.1
624 375 0.1
196 560 0.1
120 868 0.1
627 622 0.1
583 562 0.1
243 428 0.1
669 786 0.1
642 798 0.1
865 768 0.1
862 696 0.1
858 534 0.1
817 278 0.1
647 289 0.1
793 154 0.1
824 20 0.1
844 50 0.1
78 138 0.1
82 61 0.1
101 95 0.1
167 81 0.1
214 79 0.1
332 23 0.1
388 81 0.1
371 207 0.1
270 109 0.1
413 342 0.1
410 250 0.1
396 217 0.1
315 287 0.1
230 351 0.1
129 213 0.1
92 222 0.1
41 314 0.1
99 345 0.1
251 489 0.1
153 485 0.1
6 492 0.1
116 507 0.1
29 575 0.1
70 652 0.1
235 818 0.1
165 659 0.1
143 602 0.1
370 763 0.1
315 874 0.1
386 865 0.1
408 849 0.1
388 653 0.1
354 551 0.1
257 547 0.1
365 515 0.1
373 492 0.1
382 487 0.1
546 496 0.1
456 510 0.1
531 616 0.1
451 656 0.1
521 705 0.1
524 808 0.1
643 887 0.1
571 837 0.1
534 797 0.1
684 641 0.1
764 679 0.1
767 613 0.1
842 613 0.1
779 536 0.1
875 526 0.1
786 503 0.1
730 475 0.1
823 433 0.1
839 486 0.1
845 295 0.1
753 364 0.1
848 302 0.1
748 412 0.1
719 297 0.1
618 294 0.1
417 258 0.1
443 287 0.1
457 284 0.1
531 234 0.1
455 242 0.1
441 215 0.1
511 22 0.1
549 1 0.1
618 81 0.1
627 172 0.1
638 206 0.1
738 106 0.1
687 48 0.1

CELLS 195 780
3 25 42 118 
3 114 118 117 
3 42 43 117 
3 25 118 114 
3 104 40 116 
3 117 116 115 
3 114 117 115 
3 114 115 12 
3 118 42 117 
3 112 114 12 
3 25 114 113 
3 25 113 1 
3 50 49 112 
3 114 112 113 
3 12 116 105 
3 12 105 11 
3 101 28 104 
3 101 104 39 
3 98 96 103 
3 98 103 101 
3 100 23 102 
3 98 102 95 
3 103 97 28 
3 100 102 39 
3 23 1 102 
3 98 101 102 
3 38 96 99 
3 95 99 98 
3 96 97 103 
3 38 99 95 
3 32 81 97 
3 94 97 96 
3 94 90 97 
3 99 96 98 
3 38 94 96 
3 37 95 2 
3 92 90 94 
3 93 94 38 
3 38 95 93 
3 94 93 92 
3 93 37 16 
3 31 97 90 
3 92 93 91 
3 92 91 90 
3 91 16 17 
3 32 97 31 
3 85 35 89 
3 10 89 86 
3 86 89 88 
3 73 88 87 
3 73 74 88 
3 73 87 72 
3 89 35 88 
3 71 86 74 
3 31 17 85 
3 8 85 10 
3 75 76 84 
3 71 84 10 
3 76 78 82 
3 10 84 9 
3 11 97 81 
3 19 81 9 
3 79 33 80 
3 82 80 19 
3 33 19 80 
3 62 79 78 
3 62 33 79 
3 77 78 76 
3 76 75 77 
3 78 77 62 
3 78 79 80 
3 69 77 75 
3 82 78 80 
3 69 75 71 
3 86 88 74 
3 85 89 10 
3 88 35 87 
3 71 73 72 
3 87 2 3 
3 68 72 30 
3 10 86 71 
3 74 73 71 
3 67 20 70 
3 67 70 69 
3 70 29 69 
3 30 69 68 
3 71 72 68 
3 71 68 69 
3 20 66 70 
3 20 67 21 
3 64 65 66 
3 21 66 20 
3 64 61 65 
3 66 65 70 
3 60 61 64 
3 60 64 0 
3 61 14 63 
3 65 63 29 
3 82 19 9 
3 63 62 29 
3 27 14 61 
3 27 61 60 
3 7 59 60 
3 7 60 0 
3 63 14 33 
3 44 59 7 
3 44 6 58 
3 59 58 27 
3 48 49 52 
3 13 52 26 
3 26 52 50 
3 26 50 12 
3 0 113 49 
3 5 49 48 
3 47 5 48 
3 13 48 52 
3 5 0 49 
3 5 47 46 
3 47 48 13 
3 5 46 6 
3 6 47 58 
3 6 44 7 
3 1 23 43 
3 1 43 24 
3 24 43 42 
3 24 42 1 
3 117 43 41 
3 117 41 116 
3 28 11 105 
3 115 116 12 
3 116 40 105 
3 102 101 39 
3 102 1 95 
3 16 91 93 
3 95 1 2 
3 16 37 36 
3 37 93 95 
3 17 90 91 
3 18 15 87 
3 18 35 34 
3 69 30 21 
3 85 17 35 
3 14 19 33 
3 63 33 62 
3 101 103 28 
3 81 32 9 
3 90 17 31 
3 32 31 8 
3 72 87 3 
3 87 35 18 
3 84 76 82 
3 65 29 70 
3 104 41 23 
3 105 40 28 
3 13 14 27 
3 44 58 59 
3 52 49 50 
3 6 46 47 
3 104 23 39 
3 42 25 1 
3 43 23 41 
3 50 112 12 
3 37 2 36 
3 39 23 100 
3 77 29 62 
3 64 21 3 
3 69 29 77 
3 59 27 60 
3 14 11 19 
3 84 71 75 
3 72 3 30 
3 17 18 34 
3 8 31 85 
3 36 2 15 
3 19 11 81 
3 84 82 9 
3 40 104 28 
3 64 3 0 
3 58 47 13 
3 116 41 104 
3 26 12 13 
3 16 36 15 
3 2 87 15 
3 30 3 21 
3 35 17 34 
3 112 49 113 
3 67 69 21 
3 32 8 9 
3 58 13 27 
3 65 61 63 
3 97 11 28 
3 64 66 21 
3 7 0 4 
3 5 4 0 
3 113 0 1 


CELL_TYPES 232
5 5 5 5 5 5 5 5 5 5 5 5 5 5 5 5 5 5 5 5 5 5 5 5 5 5 5 5 5 5 5 5 5 5 5 5 5 5 5 5 5 5 5 5 5 5 5 5 5 5 5 5 5 5 5 5 5 5 5 5 5 5 5 5 5 5 5 5 5 5 5 5 5 5 5 5 5 5 5 5 5 5 5 5 5 5 5 5 5 5 5 5 5 5 5 5 5 5 5 5 5 5 5 5 5 5 5 5 5 5 5 5 5 5 5 5 5 5 5 5 5 5 5 5 5 5 5 5 5 5 5 5 5 5 5 5 5 5 5 5 5 5 5 5 5 5 5 5 5 5 5 5 5 5 5 5 5 5 5 5 5 5 5 5 5 5 5 5 5 5 5 5 5 5 5 5 5 5 5 5 5 5 5 5 5 5 5 5 5 5 5 5 5 5 5 5 5 5 5 5 5 5 5 5 5 5 5 5 5 5 5 5 5 5 5 5 5 5 5 5 5 5 5 5 5 5 5 5 5 5 5 5 

CELL_DATA 232
SCALARS scalars float 1
LOOKUP_TABLE lut 
0
0.004329
0.00865801
0.012987
0.017316
0.021645
0.025974
0.030303
0.034632
0.038961
0.04329
0.047619
0.0519481
0.0562771
0.0606061
0.0649351
0.0692641
0.0735931
0.0779221
0.0822511
0.0865801
0.0909091
0.0952381
0.0995671
0.103896
0.108225
0.112554
0.116883
0.121212
0.125541
0.12987
0.134199
0.138528
0.142857
0.147186
0.151515
0.155844
0.160173
0.164502
0.168831
0.17316
0.177489
0.181818
0.186147
0.190476
0.194805
0.199134
0.203463
0.207792
0.212121
0.21645
0.220779
0.225108
0.229437
0.233766
0.238095
0.242424
0.246753
0.251082
0.255411
0.25974
0.264069
0.268398
0.272727
0.277056
0.281385
0.285714
0.290043
0.294372
0.298701
0.30303
0.307359
0.311688
0.316017
0.320346
0.324675
0.329004
0.333333
0.337662
0.341991
0.34632
0.350649
0.354978
0.359307
0.363636
0.367965
0.372294
0.376623
0.380952
0.385281
0.38961
0.393939
0.398268
0.402597
0.406926
0.411255
0.415584
0.419913
0.424242
0.428571
0.4329
0.437229
0.441558
0.445887
0.450216
0.454545
0.458874
0.463203
0.467532
0.471861
0.47619
0.480519
0.484848
0.489177
0.493506
0.497835
0.502165
0.506494
0.510823
0.515152
0.519481
0.52381
0.528139
0.532468
0.536797
0.541126
0.545455
0.549784
0.554113
0.558442
0.562771
0.5671
0.571429
0.575758
0.580087
0.584416
0.588745
0.593074
0.597403
0.601732
0.606061
0.61039
0.614719
0.619048
0.623377
0.627706
0.632035
0.636364
0.640693
0.645022
0.649351
0.65368
0.658009
0.662338
0.666667
0.670996
0.675325
0.679654
0.683983
0.688312
0.692641
0.69697
0.701299
0.705628
0.709957
0.714286
0.718615
0.722944
0.727273
0.731602
0.735931
0.74026
0.744589
0.748918
0.753247
0.757576
0.761905
0.766234
0.770563
0.774892
0.779221
0.78355
0.787879
0.792208
0.796537
0.800866
0.805195
0.809524
0.813853
0.818182
0.822511
0.82684
0.831169
0.835498
0.839827
0.844156
0.848485
0.852814
0.857143
0.861472
0.865801
0.87013
0.874459
0.878788
0.883117
0.887446
0.891775
0.896104
0.900433
0.904762
0.909091
0.91342
0.917749
0.922078
0.926407
0.930736
0.935065
0.939394
0.943723
0.948052
0.952381
0.95671
0.961039
0.965368
0.969697
0.974026
0.978355
0.982684
0.987013
0.991342
0.995671
1


