# vtk DataFile Version 2.0
grid description
ASCII
DATASET UNSTRUCTURED_GRID

POINTS 2016 double
0 0 0.1
900 0 0.1
900 900 0.1
0 900 0.1
50 50 0.1
100 50 0.1
100 100 0.1
50 100 0.1
600 600 0.1
500 500 0.1
500 700 0.1
600 400 0.1
600 200 0.1
200 200 0.1
200 400 0.1
800 800 0.1
800 700 0.1
700 700 0.1
700 800 0.1
307 102 0.1
8 445 0.1
16 621 0.1
728 797 0.1
601 285 0.1
747 95 0.1
676 42 0.1
165 208 0.1
355 172 0.1
367 86 0.1
243 366 0.1
178 208 0.1
132 473 0.1
3 531 0.1
67 553 0.1
98 853 0.1
373 863 0.1
125 556 0.1
448 483 0.1
451 527 0.1
593 686 0.1
560 862 0.1
625 765 0.1
674 625 0.1
783 558 0.1
889 328 0.1
797 524 0.1
594 289 0.1
801 109 0.1
823 21 0.1
852 64 0.1
72 20 0.1
125 95 0.1
126 153 0.1
266 98 0.1
211 67 0.1
297 23 0.1
332 96 0.1
344 95 0.1
322 146 0.1
306 135 0.1
268 157 0.1
196 318 0.1
243 204 0.1
299 310 0.1
297 446 0.1
254 384 0.1
187 409 0.1
115 412 0.1
91 332 0.1
104 239 0.1
38 308 0.1
89 363 0.1
84 443 0.1
110 448 0.1
124 572 0.1
188 498 0.1
192 573 0.1
182 588 0.1
150 644 0.1
84 673 0.1
90 690 0.1
65 842 0.1
202 881 0.1
145 862 0.1
161 726 0.1
248 792 0.1
246 819 0.1
228 830 0.1
328 862 0.1
381 771 0.1
325 714 0.1
316 679 0.1
300 580 0.1
203 580 0.1
218 577 0.1
247 519 0.1
254 448 0.1
531 552 0.1
578 509 0.1
652 625 0.1
541 604 0.1
452 555 0.1
462 722 0.1
596 726 0.1
439 771 0.1
610 863 0.1
649 858 0.1
598 784 0.1
796 777 0.1
858 834 0.1
696 891 0.1
876 855 0.1
897 815 0.1
879 745 0.1
898 559 0.1
874 555 0.1
781 603 0.1
771 545 0.1
811 519 0.1
813 483 0.1
893 438 0.1
746 291 0.1
840 271 0.1
615 226 0.1
653 239 0.1
676 422 0.1
500 323 0.1
463 391 0.1
456 467 0.1
434 207 0.1
595 238 0.1
601 232 0.1
600 137 0.1
495 197 0.1
410 166 0.1
412 93 0.1
526 123 0.1
620 36 0.1
833 42 0.1
711 140 0.1
763 162 0.1
898 194 0.1
882 93 0.1
890 2 0.1
68 27 0.1
79 25 0.1
81 105 0.1
61 45 0.1
25 84 0.1
34 138 0.1
65 178 0.1
19 233 0.1
65 213 0.1
85 119 0.1
81 106 0.1
168 202 0.1
99 223 0.1
166 223 0.1
175 223 0.1
192 180 0.1
185 172 0.1
184 155 0.1
172 128 0.1
170 99 0.1
101 24 0.1
139 97 0.1
178 93 0.1
203 46 0.1
202 97 0.1
239 86 0.1
229 72 0.1
247 67 0.1
325 7 0.1
340 48 0.1
372 84 0.1
391 89 0.1
387 108 0.1
255 86 0.1
331 125 0.1
381 148 0.1
433 159 0.1
345 234 0.1
338 163 0.1
336 195 0.1
269 231 0.1
277 229 0.1
287 221 0.1
214 116 0.1
227 167 0.1
238 171 0.1
259 285 0.1
272 296 0.1
334 296 0.1
275 281 0.1
311 241 0.1
340 243 0.1
355 251 0.1
389 241 0.1
411 284 0.1
401 290 0.1
346 278 0.1
383 343 0.1
395 328 0.1
395 346 0.1
431 440 0.1
415 449 0.1
399 351 0.1
306 429 0.1
378 374 0.1
338 360 0.1
281 316 0.1
293 410 0.1
304 452 0.1
249 382 0.1
204 393 0.1
161 448 0.1
144 341 0.1
234 341 0.1
244 364 0.1
258 283 0.1
257 246 0.1
184 245 0.1
169 249 0.1
173 285 0.1
161 340 0.1
115 295 0.1
94 290 0.1
61 278 0.1
4 364 0.1
58 365 0.1
49 373 0.1
21 411 0.1
29 398 0.1
61 392 0.1
143 435 0.1
117 447 0.1
97 437 0.1
25 539 0.1
10 543 0.1
69 534 0.1
70 504 0.1
51 472 0.1
73 488 0.1
90 453 0.1
214 475 0.1
158 538 0.1
155 527 0.1
85 519 0.1
126 561 0.1
144 578 0.1
201 584 0.1
209 644 0.1
177 613 0.1
133 642 0.1
80 594 0.1
104 588 0.1
107 561 0.1
42 599 0.1
45 601 0.1
48 616 0.1
0 664 0.1
64 721 0.1
72 732 0.1
46 745 0.1
40 759 0.1
5 754 0.1
64 783 0.1
18 819 0.1
13 884 0.1
70 862 0.1
96 835 0.1
75 832 0.1
136 737 0.1
106 747 0.1
142 806 0.1
219 879 0.1
196 847 0.1
170 829 0.1
219 713 0.1
184 699 0.1
149 714 0.1
103 678 0.1
146 661 0.1
177 689 0.1
229 699 0.1
276 726 0.1
328 821 0.1
315 793 0.1
229 755 0.1
227 851 0.1
254 856 0.1
257 892 0.1
284 881 0.1
276 869 0.1
260 846 0.1
359 779 0.1
348 815 0.1
383 829 0.1
424 869 0.1
429 830 0.1
433 821 0.1
413 775 0.1
364 768 0.1
357 770 0.1
351 743 0.1
366 718 0.1
435 708 0.1
410 692 0.1
423 669 0.1
435 627 0.1
392 607 0.1
350 634 0.1
342 687 0.1
284 692 0.1
273 664 0.1
249 648 0.1
231 630 0.1
268 606 0.1
276 604 0.1
324 522 0.1
256 508 0.1
244 529 0.1
270 483 0.1
349 486 0.1
352 488 0.1
381 485 0.1
385 498 0.1
413 569 0.1
426 555 0.1
428 554 0.1
432 488 0.1
444 458 0.1
453 477 0.1
497 529 0.1
453 450 0.1
500 386 0.1
567 378 0.1
576 443 0.1
580 450 0.1
649 494 0.1
541 480 0.1
519 503 0.1
537 601 0.1
547 589 0.1
564 541 0.1
614 670 0.1
578 677 0.1
574 625 0.1
500 683 0.1
529 616 0.1
512 560 0.1
446 632 0.1
443 672 0.1
468 675 0.1
461 737 0.1
484 747 0.1
504 710 0.1
495 759 0.1
465 752 0.1
443 750 0.1
453 773 0.1
457 828 0.1
444 868 0.1
491 836 0.1
463 777 0.1
486 763 0.1
582 773 0.1
570 790 0.1
595 809 0.1
600 812 0.1
598 810 0.1
650 800 0.1
622 763 0.1
614 755 0.1
540 759 0.1
551 724 0.1
571 713 0.1
653 748 0.1
717 672 0.1
785 673 0.1
818 689 0.1
767 688 0.1
665 704 0.1
734 749 0.1
733 879 0.1
678 890 0.1
737 833 0.1
828 820 0.1
834 791 0.1
842 808 0.1
843 851 0.1
859 882 0.1
865 881 0.1
871 880 0.1
861 879 0.1
854 784 0.1
841 802 0.1
839 684 0.1
850 672 0.1
864 708 0.1
844 649 0.1
876 590 0.1
844 556 0.1
820 556 0.1
823 630 0.1
839 646 0.1
806 655 0.1
698 650 0.1
693 663 0.1
703 648 0.1
703 589 0.1
728 627 0.1
762 534 0.1
729 549 0.1
689 519 0.1
659 473 0.1
674 416 0.1
702 508 0.1
798 427 0.1
799 485 0.1
771 527 0.1
825 525 0.1
837 436 0.1
841 419 0.1
898 358 0.1
836 367 0.1
797 334 0.1
846 316 0.1
867 341 0.1
840 303 0.1
842 301 0.1
861 274 0.1
799 211 0.1
789 243 0.1
790 283 0.1
775 221 0.1
722 209 0.1
788 207 0.1
693 217 0.1
702 258 0.1
715 275 0.1
715 312 0.1
747 305 0.1
779 279 0.1
776 347 0.1
704 354 0.1
695 341 0.1
613 332 0.1
624 303 0.1
678 286 0.1
611 285 0.1
588 317 0.1
608 358 0.1
549 356 0.1
491 360 0.1
438 321 0.1
479 286 0.1
487 271 0.1
513 311 0.1
519 257 0.1
470 256 0.1
454 249 0.1
474 224 0.1
485 208 0.1
494 239 0.1
574 240 0.1
562 252 0.1
566 269 0.1
649 269 0.1
607 232 0.1
600 215 0.1
594 134 0.1
602 121 0.1
588 110 0.1
590 112 0.1
587 162 0.1
580 191 0.1
577 180 0.1
521 200 0.1
445 175 0.1
507 166 0.1
553 162 0.1
546 64 0.1
538 109 0.1
460 59 0.1
467 40 0.1
467 30 0.1
568 1 0.1
624 19 0.1
586 29 0.1
615 79 0.1
667 61 0.1
653 51 0.1
634 8 0.1
669 43 0.1
739 8 0.1
745 36 0.1
708 54 0.1
678 48 0.1
678 73 0.1
701 82 0.1
670 100 0.1
695 137 0.1
728 125 0.1
726 99 0.1
737 76 0.1
777 129 0.1
773 130 0.1
761 173 0.1
840 154 0.1
899 128 0.1
897 63 0.1
845 53 0.1
830 40 0.1
829 43 0.1
773 15 0.1
810 24 0.1
848 4 0.1
6 3 0.1
3 5 0.1
7 14 0.1
12 14 0.1
30 9 0.1
52 13 0.1
56 9 0.1
84 14 0.1
73 37 0.1
34 30 0.1
32 24 0.1
82 60 0.1
95 45 0.1
101 54 0.1
104 90 0.1
92 100 0.1
90 71 0.1
44 61 0.1
65 49 0.1
77 39 0.1
31 50 0.1
20 58 0.1
0 71 0.1
21 108 0.1
37 104 0.1
29 108 0.1
14 114 0.1
3 140 0.1
1 143 0.1
1 150 0.1
1 203 0.1
18 217 0.1
14 216 0.1
19 167 0.1
57 182 0.1
76 200 0.1
53 222 0.1
84 194 0.1
93 192 0.1
84 149 0.1
86 134 0.1
55 144 0.1
38 145 0.1
64 130 0.1
65 113 0.1
88 130 0.1
160 134 0.1
172 120 0.1
146 138 0.1
137 160 0.1
122 142 0.1
133 162 0.1
148 167 0.1
135 194 0.1
151 209 0.1
171 207 0.1
150 188 0.1
176 176 0.1
207 201 0.1
174 208 0.1
211 221 0.1
221 210 0.1
213 189 0.1
197 175 0.1
186 169 0.1
178 170 0.1
180 135 0.1
186 119 0.1
193 141 0.1
190 92 0.1
195 42 0.1
189 41 0.1
186 47 0.1
186 48 0.1
177 55 0.1
173 94 0.1
122 98 0.1
111 88 0.1
112 73 0.1
137 48 0.1
169 34 0.1
153 26 0.1
147 17 0.1
139 17 0.1
131 4 0.1
142 9 0.1
146 5 0.1
181 17 0.1
170 22 0.1
172 23 0.1
212 28 0.1
212 6 0.1
222 5 0.1
228 3 0.1
264 11 0.1
262 23 0.1
234 22 0.1
225 11 0.1
233 63 0.1
230 68 0.1
242 71 0.1
257 77 0.1
252 54 0.1
249 24 0.1
281 43 0.1
276 45 0.1
282 99 0.1
324 96 0.1
284 76 0.1
321 61 0.1
325 38 0.1
311 43 0.1
284 32 0.1
267 23 0.1
294 14 0.1
331 9 0.1
375 9 0.1
346 41 0.1
357 50 0.1
381 47 0.1
389 5 0.1
381 3 0.1
407 8 0.1
413 36 0.1
438 30 0.1
435 60 0.1
408 49 0.1
398 46 0.1
410 81 0.1
429 69 0.1
434 76 0.1
413 90 0.1
413 99 0.1
393 95 0.1
382 75 0.1
383 73 0.1
386 68 0.1
370 84 0.1
372 89 0.1
361 98 0.1
325 103 0.1
319 137 0.1
354 171 0.1
331 137 0.1
359 122 0.1
369 115 0.1
376 129 0.1
384 113 0.1
384 156 0.1
382 135 0.1
366 150 0.1
371 192 0.1
412 192 0.1
435 184 0.1
426 199 0.1
415 206 0.1
362 195 0.1
356 224 0.1
353 208 0.1
341 207 0.1
340 171 0.1
335 177 0.1
318 178 0.1
304 220 0.1
297 221 0.1
273 198 0.1
281 173 0.1
293 192 0.1
302 176 0.1
314 160 0.1
289 139 0.1
290 133 0.1
270 127 0.1
279 153 0.1
272 154 0.1
263 153 0.1
247 141 0.1
261 113 0.1
245 123 0.1
241 124 0.1
236 141 0.1
230 174 0.1
259 164 0.1
260 185 0.1
257 203 0.1
252 202 0.1
238 223 0.1
238 234 0.1
241 248 0.1
273 266 0.1
262 281 0.1
248 262 0.1
227 295 0.1
233 309 0.1
256 321 0.1
273 328 0.1
262 325 0.1
266 302 0.1
308 277 0.1
299 285 0.1
292 312 0.1
328 334 0.1
321 308 0.1
317 273 0.1
307 261 0.1
303 262 0.1
293 256 0.1
312 251 0.1
314 246 0.1
321 236 0.1
348 232 0.1
330 255 0.1
341 289 0.1
350 268 0.1
351 248 0.1
368 225 0.1
400 244 0.1
408 235 0.1
435 254 0.1
417 278 0.1
413 275 0.1
403 276 0.1
386 295 0.1
391 291 0.1
435 296 0.1
427 334 0.1
416 317 0.1
413 308 0.1
369 314 0.1
383 310 0.1
372 302 0.1
351 295 0.1
328 322 0.1
334 325 0.1
336 376 0.1
322 387 0.1
373 398 0.1
353 387 0.1
373 361 0.1
394 345 0.1
394 350 0.1
429 349 0.1
437 373 0.1
425 389 0.1
387 394 0.1
375 411 0.1
430 407 0.1
434 419 0.1
386 450 0.1
376 436 0.1
370 449 0.1
367 443 0.1
326 424 0.1
340 420 0.1
326 400 0.1
319 405 0.1
325 442 0.1
309 446 0.1
271 455 0.1
270 443 0.1
278 415 0.1
308 433 0.1
317 440 0.1
316 363 0.1
304 360 0.1
286 358 0.1
262 339 0.1
270 341 0.1
278 394 0.1
254 357 0.1
250 352 0.1
248 338 0.1
228 338 0.1
236 354 0.1
231 371 0.1
224 379 0.1
233 388 0.1
252 388 0.1
261 436 0.1
251 442 0.1
231 401 0.1
208 441 0.1
176 418 0.1
152 418 0.1
172 436 0.1
171 446 0.1
105 450 0.1
103 446 0.1
100 432 0.1
95 432 0.1
108 407 0.1
150 414 0.1
149 373 0.1
136 373 0.1
109 384 0.1
119 362 0.1
131 343 0.1
153 352 0.1
158 325 0.1
179 366 0.1
163 388 0.1
189 406 0.1
215 397 0.1
186 339 0.1
224 297 0.1
211 304 0.1
207 308 0.1
173 292 0.1
195 287 0.1
198 292 0.1
181 270 0.1
219 259 0.1
201 225 0.1
170 246 0.1
179 276 0.1
170 280 0.1
165 283 0.1
134 251 0.1
139 234 0.1
105 263 0.1
128 285 0.1
119 290 0.1
95 315 0.1
97 308 0.1
150 298 0.1
158 317 0.1
158 324 0.1
133 316 0.1
61 356 0.1
55 355 0.1
49 330 0.1
53 325 0.1
93 308 0.1
[...]
CELL_DATA 4023
SCALARS scalars float 1
LOOKUP_TABLE lut 
0
0.000248633
0.000497265
0.000745898
0.00099453
0.00124316
0.0014918
0.00174043
0.00198906
0.00223769
0.00248633
0.00273496
0.00298359
0.00323222
0.00348086
0.00372949
0.00397812
0.00422675
0.00447539
0.00472402
0.00497265
0.00522128
0.00546992
0.00571855
0.00596718
0.00621581
0.00646445
0.00671308
0.00696171
0.00721034
0.00745898
0.00770761
0.00795624
0.00820487
0.00845351
0.00870214
0.00895077
0.0091994
0.00944804
0.00969667
0.0099453
0.0101939
0.0104426
0.0106912
0.0109398
0.0111885
0.0114371
0.0116857
0.0119344
0.012183
0.0124316
0.0126803
0.0129289
0.0131775
0.0134262
0.0136748
0.0139234
0.0141721
0.0144207
0.0146693
0.014918
0.0151666
0.0154152
0.0156638
0.0159125
0.0161611
0.0164097
0.0166584
0.016907
0.0171556
0.0174043
0.0176529
0.0179015
0.0181502
0.0183988
0.0186474
0.0188961
0.0191447
0.0193933
0.019642
0.0198906
0.0201392
0.0203879
0.0206365
0.0208851
0.0211338
0.0213824
0.021631
0.0218797
0.0221283
0.0223769
0.0226256
0.0228742
0.0231228
0.0233715
0.0236201
0.0238687
0.0241174
0.024366
0.0246146
0.0248633
0.0251119
0.0253605
0.0256091
0.0258578
0.0261064
0.026355
0.0266037
0.0268523
0.0271009
0.0273496
0.0275982
0.0278468
0.0280955
0.0283441
0.0285927
0.0288414
0.02909
0.0293386
0.0295873
0.0298359
0.0300845
0.0303332
0.0305818
0.0308304
0.0310791
0.0313277
0.0315763
0.031825
0.0320736
0.0323222
0.0325709
0.0328195
0.0330681
0.0333168
0.0335654
0.033814
0.0340627
0.0343113
0.0345599
0.0348086
0.0350572
0.0353058
0.0355545
0.0358031
0.0360517
0.0363003
0.036549
0.0367976
0.0370462
0.0372949
0.0375435
0.0377921
0.0380408
0.0382894
0.038538
0.0387867
0.0390353
0.0392839
0.0395326
0.0397812
0.0400298
0.0402785
0.0405271
0.0407757
0.0410244
0.041273
0.0415216
0.0417703
0.0420189
0.0422675
0.0425162
0.0427648
0.0430134
0.0432621
0.0435107
0.0437593
0.044008
0.0442566
0.0445052
0.0447539
0.0450025
0.0452511
0.0454998
0.0457484
0.045997
0.0462456
0.0464943
0.0467429
0.0469915
0.0472402
0.0474888
0.0477374
0.0479861
0.0482347
0.0484833
0.048732
0.0489806
0.0492292
0.0494779
0.0497265
0.0499751
0.0502238
0.0504724
0.050721
0.0509697
0.0512183
0.0514669
0.0517156
0.0519642
0.0522128
0.0524615
0.0527101
0.0529587
0.0532074
0.053456
0.0537046
0.0539533
0.0542019
0.0544505
0.0546992
0.0549478
0.0551964
0.0554451
0.0556937
0.0559423
0.0561909
0.0564396
0.0566882
0.0569368
0.0571855
0.0574341
0.0576827
0.0579314
0.05818
0.0584286
0.0586773
0.0589259
0.0591745
0.0594232
0.0596718
0.0599204
0.0601691
0.0604177
0.0606663
0.060915
0.0611636
0.0614122
0.0616609
0.0619095
0.0621581
0.0624068
0.0626554
0.062904
0.0631527
0.0634013
0.0636499
0.0638986
0.0641472
0.0643958
0.0646445
0.0648931
0.0651417
0.0653904
0.065639
0.0658876
0.0661363
0.0663849
0.0666335
0.0668821
0.0671308
0.0673794
0.067628
0.0678767
0.0681253
0.0683739
0.0686226
0.0688712
0.0691198
0.0693685
0.0696171
0.0698657
0.0701144
0.070363
0.0706116
0.0708603
0.0711089
0.0713575
0.0716062
0.0718548
0.0721034
0.0723521
0.0726007
0.0728493
0.073098
0.0733466
0.0735952
0.0738439
0.0740925
0.0743411
0.0745898
0.0748384
0.075087
0.0753357
0.0755843
0.0758329
0.0760816
0.0763302
0.0765788
0.0768274
0.0770761
0.0773247
0.0775733
0.077822
0.0780706
0.0783192
0.0785679
0.0788165
0.0790651
0.0793138
0.0795624
0.079811
0.0800597
0.0803083
0.0805569
0.0808056
0.0810542
0.0813028
0.0815515
0.0818001
0.0820487
0.0822974
0.082546
0.0827946
0.0830433
0.0832919
0.0835405
0.0837892
0.0840378
0.0842864
0.0845351
0.0847837
0.0850323
0.085281
0.0855296
0.0857782
0.0860269
0.0862755
0.0865241
0.0867727
0.0870214
0.08727
0.0875186
0.0877673
0.0880159
0.0882645
0.0885132
0.0887618
0.0890104
0.0892591
0.0895077
0.0897563
0.090005
0.0902536
0.0905022
0.0907509
0.0909995
0.0912481
0.0914968
0.0917454
0.091994
0.0922427
0.0924913
0.0927399
0.0929886
0.0932372
0.0934858
0.0937345
0.0939831
0.0942317
0.0944804
0.094729
0.0949776
0.0952263
0.0954749
0.0957235
0.0959722
0.0962208
0.0964694
0.0967181
0.0969667
0.0972153
0.0974639
0.0977126
0.0979612
0.0982098
0.0984585
0.0987071
0.0989557
0.0992044
0.099453
0.0997016
0.0999503
0.100199
0.100448
0.100696
0.100945
0.101193
0.101442
0.101691
0.101939
0.102188
0.102437
0.102685
0.102934
0.103182
0.103431
0.10368
0.103928
0.104177
0.104426
0.104674
0.104923
0.105172
0.10542
0.105669
0.105917
0.106166
0.106415
0.106663
0.106912
0.107161
0.107409
0.107658
0.107907
0.108155
0.108404
0.108652
0.108901
0.10915
0.109398
0.109647
0.109896
0.110144
0.110393
0.110641
0.11089
0.111139
0.111387
0.111636
0.111885
0.112133
0.112382
0.112631
0.112879
0.113128
0.113376
0.113625
0.113874
0.114122
0.114371
0.11462
0.114868
0.115117
0.115365
0.115614
0.115863
0.116111
0.11636
0.116609
0.116857
0.117106
0.117355
0.117603
0.117852
0.1181
0.118349
0.118598
0.118846
0.119095
0.119344
0.119592
0.119841
0.12009
0.120338
0.120587
0.120835
0.121084
0.121333
0.121581
0.12183
0.122079
0.122327
0.122576
0.122824
0.123073
0.123322
0.12357
0.123819
0.124068
0.124316
0.124565
0.124814
0.125062
0.125311
0.125559
0.125808
0.126057
0.126305
0.126554
0.126803
0.127051
0.1273
0.127548
0.127797
0.128046
0.128294
0.128543
0.128792
0.12904
0.129289
0.129538
0.129786
0.130035
0.130283
0.130532
0.130781
0.131029
0.131278
0.131527
0.131775
0.132024
0.132273
0.132521
0.13277
0.133018
0.133267
0.133516
0.133764
0.134013
0.134262
0.13451
0.134759
0.135007
0.135256
0.135505
0.135753
0.136002
0.136251
0.136499
0.136748
0.136997
0.137245
0.137494
0.137742
0.137991
0.13824
0.138488
0.138737
0.138986
0.139234
0.139483
0.139731
0.13998
0.140229
0.140477
0.140726
0.140975
0.141223
0.141472
0.141721
0.141969
0.142218
0.142466
0.142715
0.142964
0.143212
0.143461
0.14371
0.143958
0.144207
0.144455
0.144704
0.144953
0.145201
0.14545
0.145699
0.145947
0.146196
0.146445
0.146693
0.146942
0.14719
0.147439
0.147688
0.147936
0.148185
0.148434
0.148682
0.148931
0.14918
0.149428
0.149677
0.149925
0.150174
0.150423
0.150671
0.15092
0.151169
0.151417
0.151666
0.151914
0.152163
0.152412
0.15266
0.152909
0.153158
0.153406
0.153655
0.153904
0.154152
0.154401
0.154649
0.154898
0.155147
0.155395
0.155644
0.155893
0.156141
0.15639
0.156638
0.156887
0.157136
0.157384
0.157633
0.157882
0.15813
0.158379
0.158628
0.158876
0.159125
0.159373
0.159622
0.159871
0.160119
0.160368
0.160617
0.160865
0.161114
0.161363
0.161611
0.16186
0.162108
0.162357
0.162606
0.162854
0.163103
0.163352
0.1636
0.163849
0.164097
0.164346
0.164595
0.164843
0.165092
0.165341
0.165589
0.165838
0.166087
0.166335
0.166584
0.166832
0.167081
0.16733
0.167578
0.167827
0.168076
0.168324
0.168573
0.168821
0.16907
0.169319
0.169567
0.169816
0.170065
0.170313
0.170562
0.170811
0.171059
0.171308
0.171556
0.171805
0.172054
0.172302
0.172551
0.1728
0.173048
0.173297
0.173545
0.173794
0.174043
0.174291
0.17454
0.174789
0.175037
0.175286
0.175535
0.175783
0.176032
0.17628
0.176529
0.176778
0.177026
0.177275
0.177524
0.177772
0.178021
0.17827
0.178518
0.178767
0.179015
0.179264
0.179513
0.179761
0.18001
0.180259
0.180507
0.180756
0.181004
0.181253
0.181502
0.18175
0.181999
0.182248
0.182496
0.182745
0.182994
0.183242
0.183491
0.183739
0.183988
0.184237
0.184485
0.184734
0.184983
0.185231
0.18548
0.185728
0.185977
0.186226
0.186474
0.186723
0.186972
0.18722
0.187469
0.187718
0.187966
0.188215
0.188463
0.188712
0.188961
0.189209
0.189458
0.189707
0.189955
0.190204
0.190453
0.190701
0.19095
0.191198
0.191447
0.191696
0.191944
0.192193
0.192442
0.19269
0.192939
0.193187
0.193436
0.193685
0.193933
0.194182
0.194431
0.194679
0.194928
0.195177
0.195425
0.195674
0.195922
0.196171
0.19642
0.196668
0.196917
0.197166
0.197414
0.197663
0.197911
0.19816
0.198409
0.198657
0.198906
0.199155
0.199403
0.199652
0.199901
0.200149
0.200398
0.200646
0.200895
0.201144
0.201392
0.201641
0.20189
0.202138
0.202387
0.202636
0.202884
0.203133
0.203381
0.20363
0.203879
0.204127
0.204376
0.204625
0.204873
0.205122
0.20537
0.205619
0.205868
0.206116
0.206365
0.206614
0.206862
0.207111
0.20736
0.207608
0.207857
0.208105
0.208354
0.208603
0.208851
0.2091
0.209349
0.209597
0.209846
0.210094
0.210343
0.210592
0.21084
0.211089
0.211338
0.211586
0.211835
0.212084
0.212332
0.212581
0.212829
0.213078
0.213327
0.213575
0.213824
0.214073
0.214321
0.21457
0.214818
0.215067
0.215316
0.215564
0.215813
0.216062
0.21631
0.216559
0.216808
0.217056
0.217305
0.217553
0.217802
0.218051
0.218299
0.218548
0.218797
0.219045
0.219294
0.219543
0.219791
0.22004
0.220288
0.220537
0.220786
0.221034
0.221283
0.221532
0.22178
0.222029
0.222277
0.222526
0.222775
0.223023
0.223272
0.223521
0.223769
0.224018
0.224267
0.224515
0.224764
0.225012
0.225261
0.22551
0.225758
0.226007
0.226256
0.226504
0.226753
0.227001
0.22725
0.227499
0.227747
0.227996
0.228245
0.228493
0.228742
0.228991
0.229239
0.229488
0.229736
0.229985
0.230234
0.230482
0.230731
0.23098
0.231228
0.231477
0.231726
0.231974
0.232223
0.232471
0.23272
0.232969
0.233217
0.233466
0.233715
0.233963
0.234212
0.23446
0.234709
0.234958
0.235206
0.235455
0.235704
0.235952
0.236201
0.23645
0.236698
0.236947
0.237195
0.237444
0.237693
0.237941
0.23819
0.238439
0.238687
0.238936
0.239184
0.239433
0.239682
0.23993
0.240179
0.240428
0.240676
0.240925
0.241174
0.241422
0.241671
0.241919
0.242168
0.242417
0.242665
0.242914
0.243163
0.243411
0.24366
0.243909
0.244157
0.244406
0.244654
0.244903
0.245152
0.2454
0.245649
0.245898
0.246146
0.246395
0.246643
0.246892
0.247141
0.247389
0.247638
0.247887
0.248135
0.248384
0.248633
0.248881
0.24913
0.249378
0.249627
0.249876
0.250124
0.250373
0.250622
0.25087
0.251119
0.251367
0.251616
0.251865
0.252113
0.252362
0.252611
0.252859
0.253108
0.253357
0.253605
0.253854
0.254102
0.254351
0.2546
0.254848
0.255097
0.255346
0.255594
0.255843
0.256091
0.25634
0.256589
0.256837
0.257086
0.257335
0.257583
0.257832
0.258081
0.258329
0.258578
0.258826
0.259075
0.259324
0.259572
0.259821
0.26007
0.260318
0.260567
0.260816
0.261064
0.261313
0.261561
0.26181
0.262059
0.262307
0.262556
0.262805
0.263053
0.263302
0.26355
0.263799
0.264048
0.264296
0.264545
0.264794
0.265042
0.265291
0.26554
0.265788
0.266037
0.266285
0.266534
0.266783
0.267031
0.26728
0.267529
0.267777
0.268026
0.268274
0.268523
0.268772
0.26902
0.269269
0.269518
0.269766
0.270015
0.270264
0.270512
0.270761
0.271009
0.271258
0.271507
0.271755
0.272004
0.272253
0.272501
0.27275
0.272999
0.273247
0.273496
0.273744
0.273993
0.274242
0.27449
0.274739
0.274988
0.275236
0.275485
0.275733
0.275982
0.276231
0.276479
0.276728
0.276977
0.277225
0.277474
0.277723
0.277971
0.27822
0.278468
0.278717
0.278966
0.279214
0.279463
0.279712
0.27996
0.280209
0.280457
0.280706
0.280955
0.281203
0.281452
0.281701
0.281949
0.282198
0.282447
0.282695
0.282944
0.283192
0.283441
0.28369
0.283938
0.284187
0.284436
0.284684
0.284933
0.285182
0.28543
0.285679
0.285927
0.286176
0.286425
0.286673
0.286922
0.287171
0.287419
0.287668
0.287916
0.288165
0.288414
0.288662
0.288911
0.28916
0.289408
0.289657
0.289906
0.290154
0.290403
0.290651
0.2909
0.291149
0.291397
0.291646
0.291895
0.292143
0.292392
0.29264
0.292889
0.293138
0.293386
0.293635
0.293884
0.294132
0.294381
0.29463
0.294878
0.295127
0.295375
0.295624
0.295873
0.296121
0.29637
0.296619
0.296867
0.297116
0.297364
0.297613
0.297862
0.29811
0.298359
0.298608
0.298856
0.299105
0.299354
0.299602
0.299851
0.300099
0.300348
0.300597
0.300845
0.301094
0.301343
0.301591
0.30184
0.302089
0.302337
0.302586
0.302834
0.303083
0.303332
0.30358
0.303829
0.304078
0.304326
0.304575
0.304823
0.305072
0.305321
0.305569
0.305818
0.306067
0.306315
0.306564
0.306813
0.307061
0.30731
0.307558
0.307807
0.308056
0.308304
0.308553
0.308802
0.30905
0.309299
0.309547
0.309796
0.310045
0.310293
0.310542
0.310791
0.311039
0.311288
0.311537
0.311785
0.312034
0.312282
0.312531
0.31278
0.313028
0.313277
0.313526
0.313774
0.314023
0.314272
0.31452
0.314769
0.315017
0.315266
0.315515
0.315763
0.316012
0.316261
0.316509
0.316758
0.317006
0.317255
0.317504
0.317752
0.318001
0.31825
0.318498
0.318747
0.318996
0.319244
0.319493
0.319741
0.31999
0.320239
0.320487
0.320736
0.320985
0.321233
0.321482
0.32173
0.321979
0.322228
0.322476
0.322725
0.322974
0.323222
0.323471
0.32372
0.323968
0.324217
0.324465
0.324714
0.324963
0.325211
0.32546
0.325709
0.325957
0.326206
0.326455
0.326703
0.326952
0.3272
0.327449
0.327698
0.327946
0.328195
0.328444
0.328692
0.328941
0.329189
0.329438
0.329687
0.329935
0.330184
0.330433
0.330681
0.33093
0.331179
0.331427
0.331676
0.331924
0.332173
0.332422
0.33267
0.332919
0.333168
0.333416
0.333665
0.333913
0.334162
0.334411
0.334659
0.334908
0.335157
0.335405
0.335654
0.335903
0.336151
0.3364
0.336648
0.336897
0.337146
0.337394
0.337643
0.337892
0.33814
0.338389
0.338637
0.338886
0.339135
0.339383
0.339632
0.339881
0.340129
0.340378
0.340627
0.340875
0.341124
0.341372
0.341621
0.34187
0.342118
0.342367
0.342616
0.342864
0.343113
0.343362
0.34361
0.343859
0.344107
0.344356
0.344605
0.344853
0.345102
0.345351
0.345599
0.345848
0.346096
0.346345
0.346594
0.346842
0.347091
0.34734
0.347588
0.347837
0.348086
0.348334
0.348583
0.348831
0.34908
0.349329
0.349577
0.349826
0.350075
0.350323
0.350572
0.35082
0.351069
0.351318
0.351566
0.351815
0.352064
0.352312
0.352561
0.35281
0.353058
0.353307
0.353555
0.353804
0.354053
0.354301
0.35455
0.354799
0.355047
0.355296
0.355545
0.355793
0.356042
0.35629
0.356539
0.356788
0.357036
0.357285
0.357534
0.357782
0.358031
0.358279
0.358528
0.358777
0.359025
0.359274
0.359523
0.359771
0.36002
0.360269
0.360517
0.360766
0.361014
0.361263
0.361512
0.36176
0.362009
0.362258
0.362506
0.362755
0.363003
0.363252
0.363501
0.363749
0.363998
0.364247
0.364495
0.364744
0.364993
0.365241
0.36549
0.365738
0.365987
0.366236
0.366484
0.366733
0.366982
0.36723
0.367479
0.367727
0.367976
0.368225
0.368473
0.368722
0.368971
0.369219
0.369468
0.369717
0.369965
0.370214
0.370462
0.370711
0.37096
0.371208
0.371457
0.371706
0.371954
0.372203
0.372452
0.3727
0.372949
0.373197
0.373446
0.373695
0.373943
0.374192
0.374441
0.374689
0.374938
0.375186
0.375435
0.375684
0.375932
0.376181
0.37643
0.376678
0.376927
0.377176
0.377424
0.377673
0.377921
0.37817
0.378419
0.378667
0.378916
0.379165
0.379413
0.379662
0.37991
0.380159
0.380408
0.380656
0.380905
0.381154
0.381402
0.381651
0.3819
0.382148
0.382397
0.382645
0.382894
0.383143
0.383391
0.38364
0.383889
0.384137
0.384386
0.384635
0.384883
0.385132
0.38538
0.385629
0.385878
0.386126
0.386375
0.386624
0.386872
0.387121
0.387369
0.387618
0.387867
0.388115
0.388364
0.388613
0.388861
0.38911
0.389359
0.389607
0.389856
0.390104
0.390353
0.390602
0.39085
0.391099
0.391348
0.391596
0.391845
0.392093
0.392342
0.392591
0.392839
0.393088
0.393337
0.393585
0.393834
0.394083
0.394331
0.39458
0.394828
0.395077
0.395326
0.395574
0.395823
0.396072
0.39632
0.396569
0.396818
0.397066
0.397315
0.397563
0.397812
0.398061
0.398309
0.398558
0.398807
0.399055
0.399304
0.399552
0.399801
0.40005
0.400298
0.400547
0.400796
0.401044
0.401293
0.401542
0.40179
0.402039
0.402287
0.402536
0.402785
0.403033
0.403282
0.403531
0.403779
0.404028
0.404276
0.404525
0.404774
0.405022
0.405271
0.40552
0.405768
0.406017
0.406266
0.406514
0.406763
0.407011
0.40726
0.407509
0.407757
0.408006
0.408255
0.408503
0.408752
0.409
0.409249
0.409498
0.409746
0.409995
0.410244
0.410492
0.410741
0.41099
0.411238
0.411487
0.411735
0.411984
0.412233
0.412481
0.41273
0.412979
0.413227
0.413476
0.413725
0.413973
0.414222
0.41447
0.414719
0.414968
0.415216
0.415465
0.415714
0.415962
0.416211
0.416459
0.416708
0.416957
0.417205
0.417454
0.417703
0.417951
0.4182
0.418449
0.418697
0.418946
0.419194
0.419443
0.419692
0.41994
0.420189
0.420438
0.420686
0.420935
0.421183
0.421432
0.421681
0.421929
0.422178
0.422427
0.422675
0.422924
0.423173
0.423421
0.42367
0.423918
0.424167
0.424416
0.424664
0.424913
0.425162
0.42541
0.425659
0.425908
0.426156
0.426405
0.426653
0.426902
0.427151
0.427399
0.427648
0.427897
0.428145
0.428394
0.428642
0.428891
0.42914
0.429388
0.429637
0.429886
0.430134
0.430383
0.430632
0.43088
0.431129
0.431377
0.431626
0.431875
0.432123
0.432372
0.432621
0.432869
0.433118
0.433366
0.433615
0.433864
0.434112
0.434361
0.43461
0.434858
0.435107
0.435356
0.435604
0.435853
0.436101
0.43635
0.436599
0.436847
0.437096
0.437345
0.437593
0.437842
0.438091
0.438339
0.438588
0.438836
0.439085
0.439334
0.439582
0.439831
0.44008
0.440328
0.440577
0.440825
0.441074
0.441323
0.441571
0.44182
0.442069
0.442317
0.442566
0.442815
0.443063
0.443312
0.44356
0.443809
0.444058
0.444306
0.444555
0.444804
0.445052
0.445301
0.445549
0.445798
0.446047
0.446295
0.446544
0.446793
0.447041
0.44729
0.447539
0.447787
0.448036
0.448284
0.448533
0.448782
0.44903
0.449279
0.449528
0.449776
0.450025
0.450273
0.450522
0.450771
0.451019
0.451268
0.451517
0.451765
0.452014
0.452263
0.452511
0.45276
0.453008
0.453257
0.453506
0.453754
0.454003
0.454252
0.4545
0.454749
0.454998
0.455246
0.455495
0.455743
0.455992
0.456241
0.456489
0.456738
0.456987
0.457235
0.457484
0.457732
0.457981
0.45823
0.458478
0.458727
0.458976
0.459224
0.459473
0.459722
0.45997
0.460219
0.460467
0.460716
0.460965
0.461213
0.461462
0.461711
0.461959
0.462208
0.462456
0.462705
0.462954
0.463202
0.463451
0.4637
0.463948
0.464197
0.464446
0.464694
0.464943
0.465191
0.46544
0.465689
0.465937
0.466186
0.466435
0.466683
0.466932
0.467181
0.467429
0.467678
0.467926
0.468175
0.468424
0.468672
0.468921
0.46917
0.469418
0.469667
0.469915
0.470164
0.470413
0.470661
0.47091
0.471159
0.471407
0.471656
0.471905
0.472153
0.472402
0.47265
0.472899
0.473148
0.473396
0.473645
0.473894
0.474142
0.474391
0.474639
0.474888
0.475137
0.475385
0.475634
0.475883
0.476131
0.47638
0.476629
0.476877
0.477126
0.477374
0.477623
0.477872
0.47812
0.478369
0.478618
0.478866
0.479115
0.479364
0.479612
0.479861
0.480109
0.480358
0.480607
0.480855
0.481104
0.481353
0.481601
0.48185
0.482098
0.482347
0.482596
0.482844
0.483093
0.483342
0.48359
0.483839
0.484088
0.484336
0.484585
0.484833
0.485082
0.485331
0.485579
0.485828
0.486077
0.486325
0.486574
0.486822
0.487071
0.48732
0.487568
0.487817
0.488066
0.488314
0.488563
0.488812
0.48906
0.489309
0.489557
0.489806
0.490055
0.490303
0.490552
0.490801
0.491049
0.491298
0.491546
0.491795
0.492044
0.492292
0.492541
0.49279
0.493038
0.493287
0.493536
0.493784
0.494033
0.494281
0.49453
0.494779
0.495027
0.495276
0.495525
0.495773
0.496022
0.496271
0.496519
0.496768
0.497016
0.497265
0.497514
0.497762
0.498011
0.49826
0.498508
0.498757
0.499005
0.499254
0.499503
0.499751
0.5
0.500249
0.500497
0.500746
0.500995
0.501243
0.501492
0.50174
0.501989
0.502238
0.502486
0.502735
0.502984
0.503232
0.503481
0.503729
0.503978
0.504227
0.504475
0.504724
0.504973
0.505221
0.50547
0.505719
0.505967
0.506216
0.506464
0.506713
0.506962
0.50721
0.507459
0.507708
0.507956
0.508205
0.508454
0.508702
0.508951
0.509199
0.509448
0.509697
0.509945
0.510194
0.510443
0.510691
0.51094
0.511188
0.511437
0.511686
0.511934
0.512183
0.512432
0.51268
0.512929
0.513178
0.513426
0.513675
0.513923
0.514172
0.514421
0.514669
0.514918
0.515167
0.515415
0.515664
0.515912
0.516161
0.51641
0.516658
0.516907
0.517156
0.517404
0.517653
0.517902
0.51815
0.518399
0.518647
0.518896
0.519145
0.519393
0.519642
0.519891
0.520139
0.520388
0.520636
0.520885
0.521134
0.521382
0.521631
0.52188
0.522128
0.522377
0.522626
0.522874
0.523123
0.523371
0.52362
0.523869
0.524117
0.524366
0.524615
0.524863
0.525112
0.525361
0.525609
0.525858
0.526106
0.526355
0.526604
0.526852
0.527101
0.52735
0.527598
0.527847
0.528095
0.528344
0.528593
0.528841
0.52909
0.529339
0.529587
0.529836
0.530085
0.530333
0.530582
0.53083
0.531079
0.531328
0.531576
0.531825
0.532074
0.532322
0.532571
0.532819
0.533068
0.533317
0.533565
0.533814
0.534063
0.534311
0.53456
0.534809
0.535057
0.535306
0.535554
0.535803
0.536052
0.5363
0.536549
0.536798
0.537046
0.537295
0.537544
0.537792
0.538041
0.538289
0.538538
0.538787
0.539035
0.539284
0.539533
0.539781
0.54003
0.540278
0.540527
0.540776
0.541024
0.541273
0.541522
0.54177
0.542019
0.542268
0.542516
0.542765
0.543013
0.543262
0.543511
0.543759
0.544008
0.544257
0.544505
0.544754
0.545002
0.545251