# vtk DataFile Version 2.0
grid description
ASCII
DATASET UNSTRUCTURED_GRID

POINTS 5002 double
0 0 0.1
900 0 0.1
900 900 0.1
0 900 0.1
50 50 0.1
100 50 0.1
100 100 0.1
50 100 0.1
600 600 0.1
500 500 0.1
500 700 0.1
600 400 0.1
600 200 0.1
200 200 0.1
200 400 0.1
800 800 0.1
800 700 0.1
700 700 0.1
700 800 0.1
287 277 0.1
504 494 0.1
346 639 0.1
341 702 0.1
250 85 0.1
58 178 0.1
356 223 0.1
350 423 0.1
188 444 0.1
213 554 0.1
153 588 0.1
376 881 0.1
467 658 0.1
742 627 0.1
888 500 0.1
407 380 0.1
576 319 0.1
602 310 0.1
669 281 0.1
69 195 0.1
147 293 0.1
172 53 0.1
287 247 0.1
332 170 0.1
363 232 0.1
453 319 0.1
441 392 0.1
375 402 0.1
368 393 0.1
279 337 0.1
105 396 0.1
82 370 0.1
41 395 0.1
212 430 0.1
41 484 0.1
80 584 0.1
206 640 0.1
211 650 0.1
38 805 0.1
91 868 0.1
440 899 0.1
274 858 0.1
458 628 0.1
449 528 0.1
371 519 0.1
402 516 0.1
316 447 0.1
244 487 0.1
474 463 0.1
510 535 0.1
558 547 0.1
515 553 0.1
503 572 0.1
486 769 0.1
496 876 0.1
866 825 0.1
734 789 0.1
583 589 0.1
797 588 0.1
582 566 0.1
836 558 0.1
561 493 0.1
593 490 0.1
879 315 0.1
865 324 0.1
865 397 0.1
863 224 0.1
839 318 0.1
802 340 0.1
670 222 0.1
527 31 0.1
514 62 0.1
516 88 0.1
535 198 0.1
631 156 0.1
668 98 0.1
766 133 0.1
851 195 0.1
48 28 0.1
75 32 0.1
53 37 0.1
58 124 0.1
24 166 0.1
66 243 0.1
56 274 0.1
108 200 0.1
145 179 0.1
151 174 0.1
144 169 0.1
86 157 0.1
88 82 0.1
171 47 0.1
190 69 0.1
190 111 0.1
217 57 0.1
337 91 0.1
368 81 0.1
406 27 0.1
414 95 0.1
368 269 0.1
363 252 0.1
358 259 0.1
316 141 0.1
262 188 0.1
213 123 0.1
201 182 0.1
179 268 0.1
288 349 0.1
319 287 0.1
320 303 0.1
347 343 0.1
354 332 0.1
359 304 0.1
401 345 0.1
407 406 0.1
347 417 0.1
318 440 0.1
314 371 0.1
298 442 0.1
287 440 0.1
263 436 0.1
225 458 0.1
231 443 0.1
233 436 0.1
216 432 0.1
203 352 0.1
239 340 0.1
218 332 0.1
66 296 0.1
135 330 0.1
113 352 0.1
30 353 0.1
136 399 0.1
13 400 0.1
169 402 0.1
111 406 0.1
16 469 0.1
64 465 0.1
101 498 0.1
111 481 0.1
123 480 0.1
153 488 0.1
159 463 0.1
109 535 0.1
109 544 0.1
84 558 0.1
64 527 0.1
29 569 0.1
13 565 0.1
10 513 0.1
62 655 0.1
72 676 0.1
31 741 0.1
62 808 0.1
74 810 0.1
23 874 0.1
11 889 0.1
112 897 0.1
132 883 0.1
138 882 0.1
133 810 0.1
156 753 0.1
111 696 0.1
105 580 0.1
118 577 0.1
300 674 0.1
219 706 0.1
212 783 0.1
321 790 0.1
220 810 0.1
180 814 0.1
206 865 0.1
396 795 0.1
390 817 0.1
407 774 0.1
361 756 0.1
324 746 0.1
342 745 0.1
414 713 0.1
368 659 0.1
420 598 0.1
348 553 0.1
278 596 0.1
230 614 0.1
222 641 0.1
187 621 0.1
164 558 0.1
183 535 0.1
254 500 0.1
232 507 0.1
318 471 0.1
337 507 0.1
409 470 0.1
375 533 0.1
399 462 0.1
606 527 0.1
608 528 0.1
623 548 0.1
632 517 0.1
633 552 0.1
637 510 0.1
673 543 0.1
683 624 0.1
636 554 0.1
557 584 0.1
544 640 0.1
517 586 0.1
487 571 0.1
467 590 0.1
556 690 0.1
503 738 0.1
454 752 0.1
536 775 0.1
460 809 0.1
524 827 0.1
535 879 0.1
559 843 0.1
660 765 0.1
606 756 0.1
598 747 0.1
658 681 0.1
688 661 0.1
562 643 0.1
621 641 0.1
740 783 0.1
759 792 0.1
715 820 0.1
726 829 0.1
706 871 0.1
705 884 0.1
736 892 0.1
853 897 0.1
858 889 0.1
829 879 0.1
809 877 0.1
844 859 0.1
860 835 0.1
895 808 0.1
862 774 0.1
841 687 0.1
815 779 0.1
766 740 0.1
751 648 0.1
750 632 0.1
692 739 0.1
700 599 0.1
714 510 0.1
766 552 0.1
774 529 0.1
777 576 0.1
810 564 0.1
822 555 0.1
828 627 0.1
840 465 0.1
863 436 0.1
866 429 0.1
846 428 0.1
868 352 0.1
889 309 0.1
896 218 0.1
755 255 0.1
680 294 0.1
829 339 0.1
817 362 0.1
834 364 0.1
818 454 0.1
727 506 0.1
661 452 0.1
598 466 0.1
540 382 0.1
539 374 0.1
533 371 0.1
479 419 0.1
453 479 0.1
422 215 0.1
450 315 0.1
451 340 0.1
478 242 0.1
482 219 0.1
552 284 0.1
556 317 0.1
639 265 0.1
709 189 0.1
622 155 0.1
484 186 0.1
483 204 0.1
477 120 0.1
445 186 0.1
440 137 0.1
440 10 0.1
459 69 0.1
464 20 0.1
536 56 0.1
542 49 0.1
667 100 0.1
716 7 0.1
706 42 0.1
773 91 0.1
745 121 0.1
754 125 0.1
726 135 0.1
725 137 0.1
780 141 0.1
770 213 0.1
854 213 0.1
795 202 0.1
891 199 0.1
875 178 0.1
810 80 0.1
898 57 0.1
837 39 0.1
895 21 0.1
34 39 0.1
34 1 0.1
52 7 0.1
72 6 0.1
81 49 0.1
90 46 0.1
93 34 0.1
97 97 0.1
92 58 0.1
75 86 0.1
70 100 0.1
60 85 0.1
50 92 0.1
37 120 0.1
56 146 0.1
12 147 0.1
50 165 0.1
15 186 0.1
1 187 0.1
54 208 0.1
41 215 0.1
105 223 0.1
103 214 0.1
63 209 0.1
95 165 0.1
110 147 0.1
97 142 0.1
60 129 0.1
77 123 0.1
128 141 0.1
112 154 0.1
110 167 0.1
117 192 0.1
126 201 0.1
120 208 0.1
128 214 0.1
191 211 0.1
199 192 0.1
161 175 0.1
129 172 0.1
185 164 0.1
140 149 0.1
160 138 0.1
209 67 0.1
187 86 0.1
181 84 0.1
166 97 0.1
150 124 0.1
130 93 0.1
124 110 0.1
115 20 0.1
165 44 0.1
149 14 0.1
169 5 0.1
176 61 0.1
185 42 0.1
185 30 0.1
187 14 0.1
263 7 0.1
267 26 0.1
245 35 0.1
258 39 0.1
262 43 0.1
222 54 0.1
234 67 0.1
273 94 0.1
283 87 0.1
301 81 0.1
294 78 0.1
301 42 0.1
282 36 0.1
289 4 0.1
306 1 0.1
338 19 0.1
361 14 0.1
365 12 0.1
395 2 0.1
402 4 0.1
420 20 0.1
403 57 0.1
385 81 0.1
372 50 0.1
369 24 0.1
365 58 0.1
323 42 0.1
308 51 0.1
307 91 0.1
307 136 0.1
311 126 0.1
374 139 0.1
383 142 0.1
402 148 0.1
403 101 0.1
404 104 0.1
398 155 0.1
375 176 0.1
363 151 0.1
350 170 0.1
347 163 0.1
329 201 0.1
314 150 0.1
305 174 0.1
275 187 0.1
277 183 0.1
284 165 0.1
291 161 0.1
302 144 0.1
299 141 0.1
278 132 0.1
272 127 0.1
270 183 0.1
255 102 0.1
251 111 0.1
227 185 0.1
234 192 0.1
220 206 0.1
216 217 0.1
288 228 0.1
302 230 0.1
261 264 0.1
275 301 0.1
317 309 0.1
306 331 0.1
300 339 0.1
317 342 0.1
318 296 0.1
331 294 0.1
321 274 0.1
327 251 0.1
327 237 0.1
317 224 0.1
351 241 0.1
354 248 0.1
385 269 0.1
405 249 0.1
405 257 0.1
420 234 0.1
423 264 0.1
402 273 0.1
441 276 0.1
409 278 0.1
368 335 0.1
362 332 0.1
342 296 0.1
340 277 0.1
339 299 0.1
374 351 0.1
394 390 0.1
404 384 0.1
424 365 0.1
433 368 0.1
435 385 0.1
441 363 0.1
441 422 0.1
412 408 0.1
405 443 0.1
400 420 0.1
398 408 0.1
390 456 0.1
377 456 0.1
351 468 0.1
361 448 0.1
348 443 0.1
322 406 0.1
335 387 0.1
343 382 0.1
342 373 0.1
300 410 0.1
310 403 0.1
284 371 0.1
269 371 0.1
313 415 0.1
307 461 0.1
287 438 0.1
277 446 0.1
254 466 0.1
234 408 0.1
225 399 0.1
217 381 0.1
170 378 0.1
167 403 0.1
153 369 0.1
184 348 0.1
202 349 0.1
215 358 0.1
234 357 0.1
234 323 0.1
236 330 0.1
255 323 0.1
211 282 0.1
259 272 0.1
250 271 0.1
255 267 0.1
205 258 0.1
215 246 0.1
229 245 0.1
165 269 0.1
188 255 0.1
183 234 0.1
166 230 0.1
191 270 0.1
172 279 0.1
172 304 0.1
151 270 0.1
104 281 0.1
94 266 0.1
144 262 0.1
99 253 0.1
110 250 0.1
129 241 0.1
146 231 0.1
40 254 0.1
77 252 0.1
12 260 0.1
66 283 0.1
3 286 0.1
43 287 0.1
75 321 0.1
87 301 0.1
2 388 0.1
5 423 0.1
36 405 0.1
44 369 0.1
89 337 0.1
90 350 0.1
109 432 0.1
107 442 0.1
104 442 0.1
75 435 0.1
69 446 0.1
63 436 0.1
60 433 0.1
4 436 0.1
47 465 0.1
7 479 0.1
5 497 0.1
27 540 0.1
10 552 0.1
29 573 0.1
34 579 0.1
35 595 0.1
76 579 0.1
78 572 0.1
59 566 0.1
45 526 0.1
64 520 0.1
65 488 0.1
65 473 0.1
80 498 0.1
81 520 0.1
82 493 0.1
101 479 0.1
109 470 0.1
127 494 0.1
196 515 0.1
199 565 0.1
199 563 0.1
178 590 0.1
168 583 0.1
156 568 0.1
151 571 0.1
109 592 0.1
96 533 0.1
148 605 0.1
155 618 0.1
171 600 0.1
179 610 0.1
179 620 0.1
204 609 0.1
208 611 0.1
190 650 0.1
174 658 0.1
171 641 0.1
169 649 0.1
139 624 0.1
119 627 0.1
116 636 0.1
50 655 0.1
109 649 0.1
107 625 0.1
44 609 0.1
100 606 0.1
102 602 0.1
40 600 0.1
0 626 0.1
21 623 0.1
19 596 0.1
18 615 0.1
16 635 0.1
12 649 0.1
3 647 0.1
32 650 0.1
30 678 0.1
35 726 0.1
63 689 0.1
75 711 0.1
77 669 0.1
81 726 0.1
112 679 0.1
105 747 0.1
92 763 0.1
71 739 0.1
42 788 0.1
39 766 0.1
11 812 0.1
7 807 0.1
44 820 0.1
0 832 0.1
25 850 0.1
52 860 0.1
12 868 0.1
15 876 0.1
11 898 0.1
101 899 0.1
101 866 0.1
72 859 0.1
74 859 0.1
83 854 0.1
71 829 0.1
94 823 0.1
68 837 0.1
158 777 0.1
138 785 0.1
164 853 0.1
112 854 0.1
119 878 0.1
162 895 0.1
114 899 0.1
184 874 0.1
167 888 0.1
178 886 0.1
166 855 0.1
198 853 0.1
208 835 0.1
181 809 0.1
207 786 0.1
209 727 0.1
175 776 0.1
158 763 0.1
155 721 0.1
146 740 0.1
134 727 0.1
118 762 0.1
115 661 0.1
139 708 0.1
139 686 0.1
121 687 0.1
147 680 0.1
191 690 0.1
188 665 0.1
204 719 0.1
225 665 0.1
251 669 0.1
252 662 0.1
253 702 0.1
258 667 0.1
264 701 0.1
306 673 0.1
299 743 0.1
291 730 0.1
266 740 0.1
262 702 0.1
253 722 0.1
223 708 0.1
211 712 0.1
245 751 0.1
266 806 0.1
250 818 0.1
214 819 0.1
247 823 0.1
261 828 0.1
248 896 0.1
322 844 0.1
304 855 0.1
312 862 0.1
349 818 0.1
339 787 0.1
350 784 0.1
271 767 0.1
308 747 0.1
387 795 0.1
370 804 0.1
369 817 0.1
393 826 0.1
383 856 0.1
394 867 0.1
360 886 0.1
416 813 0.1
432 862 0.1
436 898 0.1
410 876 0.1
397 811 0.1
437 810 0.1
428 802 0.1
440 746 0.1
416 769 0.1
414 725 0.1
409 785 0.1
402 730 0.1
381 726 0.1
374 726 0.1
358 653 0.1
369 716 0.1
373 712 0.1
386 707 0.1
400 677 0.1
403 696 0.1
406 706 0.1
441 710 0.1
439 615 0.1
341 609 0.1
371 608 0.1
366 605 0.1
413 564 0.1
350 560 0.1
402 551 0.1
336 558 0.1
308 559 0.1
321 579 0.1
302 591 0.1
326 634 0.1
323 637 0.1
312 640 0.1
297 652 0.1
291 624 0.1
278 640 0.1
271 622 0.1
263 616 0.1
260 637 0.1
219 627 0.1
223 583 0.1
232 582 0.1
237 613 0.1
238 597 0.1
273 576 0.1
280 578 0.1
287 572 0.1
297 557 0.1
328 524 0.1
324 529 0.1
300 543 0.1
284 550 0.1
277 536 0.1
240 548 0.1
230 535 0.1
220 474 0.1
229 519 0.1
214 471 0.1
231 524 0.1
265 475 0.1
312 507 0.1
317 480 0.1
324 508 0.1
375 513 0.1
358 518 0.1
342 537 0.1
340 542 0.1
376 546 0.1
343 547 0.1
352 548 0.1
443 549 0.1
387 525 0.1
397 519 0.1
378 512 0.1
413 503 0.1
434 495 0.1
419 471 0.1
430 484 0.1
476 470 0.1
474 485 0.1
485 493 0.1
481 516 0.1
475 516 0.1
482 517 0.1
494 554 0.1
522 540 0.1
540 537 0.1
497 531 0.1
537 528 0.1
531 522 0.1
498 522 0.1
509 513 0.1
569 471 0.1
592 472 0.1
621 470 0.1
656 482 0.1
669 492 0.1
674 490 0.1
687 494 0.1
676 550 0.1
650 537 0.1
643 517 0.1
623 513 0.1
593 544 0.1
579 520 0.1
563 522 0.1
560 494 0.1
583 559 0.1
594 566 0.1
601 564 0.1
617 599 0.1
655 575 0.1
660 562 0.1
666 560 0.1
682 607 0.1
662 628 0.1
661 606 0.1
633 614 0.1
627 636 0.1
626 640 0.1
621 629 0.1
522 646 0.1
505 630 0.1
562 616 0.1
504 615 0.1
[...]
CELL_DATA 9987
SCALARS scalars float 1
LOOKUP_TABLE lut 
0
0.00010014
0.00020028
0.000300421
0.000400561
0.000500701
0.000600841
0.000700981
0.000801122
0.000901262
0.0010014
0.00110154
0.00120168
0.00130182
0.00140196
0.0015021
0.00160224
0.00170238
0.00180252
0.00190266
0.0020028
0.00210294
0.00220308
0.00230322
0.00240336
0.0025035
0.00260365
0.00270379
0.00280393
0.00290407
0.00300421
0.00310435
0.00320449
0.00330463
0.00340477
0.00350491
0.00360505
0.00370519
0.00380533
0.00390547
0.00400561
0.00410575
0.00420589
0.00430603
0.00440617
0.00450631
0.00460645
0.00470659
0.00480673
0.00490687
0.00500701
0.00510715
0.00520729
0.00530743
0.00540757
0.00550771
0.00560785
0.00570799
0.00580813
0.00590827
0.00600841
0.00610855
0.00620869
0.00630883
0.00640897
0.00650911
0.00660925
0.00670939
0.00680953
0.00690967
0.00700981
0.00710995
0.00721009
0.00731023
0.00741037
0.00751051
0.00761065
0.0077108
0.00781094
0.00791108
0.00801122
0.00811136
0.0082115
0.00831164
0.00841178
0.00851192
0.00861206
0.0087122
0.00881234
0.00891248
0.00901262
0.00911276
0.0092129
0.00931304
0.00941318
0.00951332
0.00961346
0.0097136
0.00981374
0.00991388
0.010014
0.0101142
0.0102143
0.0103144
0.0104146
0.0105147
0.0106149
0.010715
0.0108151
0.0109153
0.0110154
0.0111156
0.0112157
0.0113158
0.011416
0.0115161
0.0116163
0.0117164
0.0118165
0.0119167
0.0120168
0.012117
0.0122171
0.0123172
0.0124174
0.0125175
0.0126177
0.0127178
0.0128179
0.0129181
0.0130182
0.0131184
0.0132185
0.0133186
0.0134188
0.0135189
0.0136191
0.0137192
0.0138193
0.0139195
0.0140196
0.0141198
0.0142199
0.01432
0.0144202
0.0145203
0.0146205
0.0147206
0.0148207
0.0149209
0.015021
0.0151212
0.0152213
0.0153215
0.0154216
0.0155217
0.0156219
0.015722
0.0158222
0.0159223
0.0160224
0.0161226
0.0162227
0.0163229
0.016423
0.0165231
0.0166233
0.0167234
0.0168236
0.0169237
0.0170238
0.017124
0.0172241
0.0173243
0.0174244
0.0175245
0.0176247
0.0177248
0.017825
0.0179251
0.0180252
0.0181254
0.0182255
0.0183257
0.0184258
0.0185259
0.0186261
0.0187262
0.0188264
0.0189265
0.0190266
0.0191268
0.0192269
0.0193271
0.0194272
0.0195273
0.0196275
0.0197276
0.0198278
0.0199279
0.020028
0.0201282
0.0202283
0.0203285
0.0204286
0.0205287
0.0206289
0.020729
0.0208292
0.0209293
0.0210294
0.0211296
0.0212297
0.0213299
0.02143
0.0215301
0.0216303
0.0217304
0.0218306
0.0219307
0.0220308
0.022131
0.0222311
0.0223313
0.0224314
0.0225315
0.0226317
0.0227318
0.022832
0.0229321
0.0230322
0.0231324
0.0232325
0.0233327
0.0234328
0.0235329
0.0236331
0.0237332
0.0238334
0.0239335
0.0240336
0.0241338
0.0242339
0.0243341
0.0244342
0.0245343
0.0246345
0.0247346
0.0248348
0.0249349
0.025035
0.0251352
0.0252353
0.0253355
0.0254356
0.0255358
0.0256359
0.025736
0.0258362
0.0259363
0.0260365
0.0261366
0.0262367
0.0263369
0.026437
0.0265372
0.0266373
0.0267374
0.0268376
0.0269377
0.0270379
0.027138
0.0272381
0.0273383
0.0274384
0.0275386
0.0276387
0.0277388
0.027839
0.0279391
0.0280393
0.0281394
0.0282395
0.0283397
0.0284398
0.02854
0.0286401
0.0287402
0.0288404
0.0289405
0.0290407
0.0291408
0.0292409
0.0293411
0.0294412
0.0295414
0.0296415
0.0297416
0.0298418
0.0299419
0.0300421
0.0301422
0.0302423
0.0303425
0.0304426
0.0305428
0.0306429
0.030743
0.0308432
0.0309433
0.0310435
0.0311436
0.0312437
0.0313439
0.031444
0.0315442
0.0316443
0.0317444
0.0318446
0.0319447
0.0320449
0.032145
0.0322451
0.0323453
0.0324454
0.0325456
0.0326457
0.0327458
0.032846
0.0329461
0.0330463
0.0331464
0.0332465
0.0333467
0.0334468
0.033547
0.0336471
0.0337472
0.0338474
0.0339475
0.0340477
0.0341478
0.0342479
0.0343481
0.0344482
0.0345484
0.0346485
0.0347486
0.0348488
0.0349489
0.0350491
0.0351492
0.0352493
0.0353495
0.0354496
0.0355498
0.0356499
0.0357501
0.0358502
0.0359503
0.0360505
0.0361506
0.0362508
0.0363509
0.036451
0.0365512
0.0366513
0.0367515
0.0368516
0.0369517
0.0370519
0.037152
0.0372522
0.0373523
0.0374524
0.0375526
0.0376527
0.0377529
0.037853
0.0379531
0.0380533
0.0381534
0.0382536
0.0383537
0.0384538
0.038554
0.0386541
0.0387543
0.0388544
0.0389545
0.0390547
0.0391548
0.039255
0.0393551
0.0394552
0.0395554
0.0396555
0.0397557
0.0398558
0.0399559
0.0400561
0.0401562
0.0402564
0.0403565
0.0404566
0.0405568
0.0406569
0.0407571
0.0408572
0.0409573
0.0410575
0.0411576
0.0412578
0.0413579
0.041458
0.0415582
0.0416583
0.0417585
0.0418586
0.0419587
0.0420589
0.042159
0.0422592
0.0423593
0.0424594
0.0425596
0.0426597
0.0427599
0.04286
0.0429601
0.0430603
0.0431604
0.0432606
0.0433607
0.0434608
0.043561
0.0436611
0.0437613
0.0438614
0.0439615
0.0440617
0.0441618
0.044262
0.0443621
0.0444622
0.0445624
0.0446625
0.0447627
0.0448628
0.0449629
0.0450631
0.0451632
0.0452634
0.0453635
0.0454636
0.0455638
0.0456639
0.0457641
0.0458642
0.0459644
0.0460645
0.0461646
0.0462648
0.0463649
0.0464651
0.0465652
0.0466653
0.0467655
0.0468656
0.0469658
0.0470659
0.047166
0.0472662
0.0473663
0.0474665
0.0475666
0.0476667
0.0477669
0.047867
0.0479672
0.0480673
0.0481674
0.0482676
0.0483677
0.0484679
0.048568
0.0486681
0.0487683
0.0488684
0.0489686
0.0490687
0.0491688
0.049269
0.0493691
0.0494693
0.0495694
0.0496695
0.0497697
0.0498698
0.04997
0.0500701
0.0501702
0.0502704
0.0503705
0.0504707
0.0505708
0.0506709
0.0507711
0.0508712
0.0509714
0.0510715
0.0511716
0.0512718
0.0513719
0.0514721
0.0515722
0.0516723
0.0517725
0.0518726
0.0519728
0.0520729
0.052173
0.0522732
0.0523733
0.0524735
0.0525736
0.0526737
0.0527739
0.052874
0.0529742
0.0530743
0.0531744
0.0532746
0.0533747
0.0534749
0.053575
0.0536751
0.0537753
0.0538754
0.0539756
0.0540757
0.0541758
0.054276
0.0543761
0.0544763
0.0545764
0.0546765
0.0547767
0.0548768
0.054977
0.0550771
0.0551772
0.0552774
0.0553775
0.0554777
0.0555778
0.0556779
0.0557781
0.0558782
0.0559784
0.0560785
0.0561787
0.0562788
0.0563789
0.0564791
0.0565792
0.0566794
0.0567795
0.0568796
0.0569798
0.0570799
0.0571801
0.0572802
0.0573803
0.0574805
0.0575806
0.0576808
0.0577809
0.057881
0.0579812
0.0580813
0.0581815
0.0582816
0.0583817
0.0584819
0.058582
0.0586822
0.0587823
0.0588824
0.0589826
0.0590827
0.0591829
0.059283
0.0593831
0.0594833
0.0595834
0.0596836
0.0597837
0.0598838
0.059984
0.0600841
0.0601843
0.0602844
0.0603845
0.0604847
0.0605848
0.060685
0.0607851
0.0608852
0.0609854
0.0610855
0.0611857
0.0612858
0.0613859
0.0614861
0.0615862
0.0616864
0.0617865
0.0618866
0.0619868
0.0620869
0.0621871
0.0622872
0.0623873
0.0624875
0.0625876
0.0626878
0.0627879
0.062888
0.0629882
0.0630883
0.0631885
0.0632886
0.0633887
0.0634889
0.063589
0.0636892
0.0637893
0.0638894
0.0639896
0.0640897
0.0641899
0.06429
0.0643901
0.0644903
0.0645904
0.0646906
0.0647907
0.0648908
0.064991
0.0650911
0.0651913
0.0652914
0.0653915
0.0654917
0.0655918
0.065692
0.0657921
0.0658922
0.0659924
0.0660925
0.0661927
0.0662928
0.066393
0.0664931
0.0665932
0.0666934
0.0667935
0.0668937
0.0669938
0.0670939
0.0671941
0.0672942
0.0673944
0.0674945
0.0675946
0.0676948
0.0677949
0.0678951
0.0679952
0.0680953
0.0681955
0.0682956
0.0683958
0.0684959
0.068596
0.0686962
0.0687963
0.0688965
0.0689966
0.0690967
0.0691969
0.069297
0.0693972
0.0694973
0.0695974
0.0696976
0.0697977
0.0698979
0.069998
0.0700981
0.0701983
0.0702984
0.0703986
0.0704987
0.0705988
0.070699
0.0707991
0.0708993
0.0709994
0.0710995
0.0711997
0.0712998
0.0714
0.0715001
0.0716002
0.0717004
0.0718005
0.0719007
0.0720008
0.0721009
0.0722011
0.0723012
0.0724014
0.0725015
0.0726016
0.0727018
0.0728019
0.0729021
0.0730022
0.0731023
0.0732025
0.0733026
0.0734028
0.0735029
0.073603
0.0737032
0.0738033
0.0739035
0.0740036
0.0741037
0.0742039
0.074304
0.0744042
0.0745043
0.0746044
0.0747046
0.0748047
0.0749049
0.075005
0.0751051
0.0752053
0.0753054
0.0754056
0.0755057
0.0756058
0.075706
0.0758061
0.0759063
0.0760064
0.0761065
0.0762067
0.0763068
0.076407
0.0765071
0.0766073
0.0767074
0.0768075
0.0769077
0.0770078
0.077108
0.0772081
0.0773082
0.0774084
0.0775085
0.0776087
0.0777088
0.0778089
0.0779091
0.0780092
0.0781094
0.0782095
0.0783096
0.0784098
0.0785099
0.0786101
0.0787102
0.0788103
0.0789105
0.0790106
0.0791108
0.0792109
0.079311
0.0794112
0.0795113
0.0796115
0.0797116
0.0798117
0.0799119
0.080012
0.0801122
0.0802123
0.0803124
0.0804126
0.0805127
0.0806129
0.080713
0.0808131
0.0809133
0.0810134
0.0811136
0.0812137
0.0813138
0.081414
0.0815141
0.0816143
0.0817144
0.0818145
0.0819147
0.0820148
0.082115
0.0822151
0.0823152
0.0824154
0.0825155
0.0826157
0.0827158
0.0828159
0.0829161
0.0830162
0.0831164
0.0832165
0.0833166
0.0834168
0.0835169
0.0836171
0.0837172
0.0838173
0.0839175
0.0840176
0.0841178
0.0842179
0.084318
0.0844182
0.0845183
0.0846185
0.0847186
0.0848187
0.0849189
0.085019
0.0851192
0.0852193
0.0853194
0.0854196
0.0855197
0.0856199
0.08572
0.0858201
0.0859203
0.0860204
0.0861206
0.0862207
0.0863208
0.086421
0.0865211
0.0866213
0.0867214
0.0868216
0.0869217
0.0870218
0.087122
0.0872221
0.0873223
0.0874224
0.0875225
0.0876227
0.0877228
0.087823
0.0879231
0.0880232
0.0881234
0.0882235
0.0883237
0.0884238
0.0885239
0.0886241
0.0887242
0.0888244
0.0889245
0.0890246
0.0891248
0.0892249
0.0893251
0.0894252
0.0895253
0.0896255
0.0897256
0.0898258
0.0899259
0.090026
0.0901262
0.0902263
0.0903265
0.0904266
0.0905267
0.0906269
0.090727
0.0908272
0.0909273
0.0910274
0.0911276
0.0912277
0.0913279
0.091428
0.0915281
0.0916283
0.0917284
0.0918286
0.0919287
0.0920288
0.092129
0.0922291
0.0923293
0.0924294
0.0925295
0.0926297
0.0927298
0.09283
0.0929301
0.0930302
0.0931304
0.0932305
0.0933307
0.0934308
0.0935309
0.0936311
0.0937312
0.0938314
0.0939315
0.0940316
0.0941318
0.0942319
0.0943321
0.0944322
0.0945323
0.0946325
0.0947326
0.0948328
0.0949329
0.095033
0.0951332
0.0952333
0.0953335
0.0954336
0.0955337
0.0956339
0.095734
0.0958342
0.0959343
0.0960344
0.0961346
0.0962347
0.0963349
0.096435
0.0965351
0.0966353
0.0967354
0.0968356
0.0969357
0.0970359
0.097136
0.0972361
0.0973363
0.0974364
0.0975366
0.0976367
0.0977368
0.097837
0.0979371
0.0980373
0.0981374
0.0982375
0.0983377
0.0984378
0.098538
0.0986381
0.0987382
0.0988384
0.0989385
0.0990387
0.0991388
0.0992389
0.0993391
0.0994392
0.0995394
0.0996395
0.0997396
0.0998398
0.0999399
0.10004
0.10014
0.10024
0.10034
0.100441
0.100541
0.100641
0.100741
0.100841
0.100941
0.101041
0.101142
0.101242
0.101342
0.101442
0.101542
0.101642
0.101742
0.101843
0.101943
0.102043
0.102143
0.102243
0.102343
0.102443
0.102544
0.102644
0.102744
0.102844
0.102944
0.103044
0.103144
0.103245
0.103345
0.103445
0.103545
0.103645
0.103745
0.103845
0.103946
0.104046
0.104146
0.104246
0.104346
0.104446
0.104546
0.104647
0.104747
0.104847
0.104947
0.105047
0.105147
0.105247
0.105347
0.105448
0.105548
0.105648
0.105748
0.105848
0.105948
0.106048
0.106149
0.106249
0.106349
0.106449
0.106549
0.106649
0.106749
0.10685
0.10695
0.10705
0.10715
0.10725
0.10735
0.10745
0.107551
0.107651
0.107751
0.107851
0.107951
0.108051
0.108151
0.108252
0.108352
0.108452
0.108552
0.108652
0.108752
0.108852
0.108953
0.109053
0.109153
0.109253
0.109353
0.109453
0.109553
0.109654
0.109754
0.109854
0.109954
0.110054
0.110154
0.110254
0.110354
0.110455
0.110555
0.110655
0.110755
0.110855
0.110955
0.111055
0.111156
0.111256
0.111356
0.111456
0.111556
0.111656
0.111756
0.111857
0.111957
0.112057
0.112157
0.112257
0.112357
0.112457
0.112558
0.112658
0.112758
0.112858
0.112958
0.113058
0.113158
0.113259
0.113359
0.113459
0.113559
0.113659
0.113759
0.113859
0.11396
0.11406
0.11416
0.11426
0.11436
0.11446
0.11456
0.114661
0.114761
0.114861
0.114961
0.115061
0.115161
0.115261
0.115362
0.115462
0.115562
0.115662
0.115762
0.115862
0.115962
0.116062
0.116163
0.116263
0.116363
0.116463
0.116563
0.116663
0.116763
0.116864
0.116964
0.117064
0.117164
0.117264
0.117364
0.117464
0.117565
0.117665
0.117765
0.117865
0.117965
0.118065
0.118165
0.118266
0.118366
0.118466
0.118566
0.118666
0.118766
0.118866
0.118967
0.119067
0.119167
0.119267
0.119367
0.119467
0.119567
0.119668
0.119768
0.119868
0.119968
0.120068
0.120168
0.120268
0.120369
0.120469
0.120569
0.120669
0.120769
0.120869
0.120969
0.121069
0.12117
0.12127
0.12137
0.12147
0.12157
0.12167
0.12177
0.121871
0.121971
0.122071
0.122171
0.122271
0.122371
0.122471
0.122572
0.122672
0.122772
0.122872
0.122972
0.123072
0.123172
0.123273
0.123373
0.123473
0.123573
0.123673
0.123773
0.123873
0.123974
0.124074
0.124174
0.124274
0.124374
0.124474
0.124574
0.124675
0.124775
0.124875
0.124975
0.125075
0.125175
0.125275
0.125376
0.125476
0.125576
0.125676
0.125776
0.125876
0.125976
0.126077
0.126177
0.126277
0.126377
0.126477
0.126577
0.126677
0.126777
0.126878
0.126978
0.127078
0.127178
0.127278
0.127378
0.127478
0.127579
0.127679
0.127779
0.127879
0.127979
0.128079
0.128179
0.12828
0.12838
0.12848
0.12858
0.12868
0.12878
0.12888
0.128981
0.129081
0.129181
0.129281
0.129381
0.129481
0.129581
0.129682
0.129782
0.129882
0.129982
0.130082
0.130182
0.130282
0.130383
0.130483
0.130583
0.130683
0.130783
0.130883
0.130983
0.131084
0.131184
0.131284
0.131384
0.131484
0.131584
0.131684
0.131784
0.131885
0.131985
0.132085
0.132185
0.132285
0.132385
0.132485
0.132586
0.132686
0.132786
0.132886
0.132986
0.133086
0.133186
0.133287
0.133387
0.133487
0.133587
0.133687
0.133787
0.133887
0.133988
0.134088
0.134188
0.134288
0.134388
0.134488
0.134588
0.134689
0.134789
0.134889
0.134989
0.135089
0.135189
0.135289
0.13539
0.13549
0.13559
0.13569
0.13579
0.13589
0.13599
0.136091
0.136191
0.136291
0.136391
0.136491
0.136591
0.136691
0.136792
0.136892
0.136992
0.137092
0.137192
0.137292
0.137392
0.137492
0.137593
0.137693
0.137793
0.137893
0.137993
0.138093
0.138193
0.138294
0.138394
0.138494
0.138594
0.138694
0.138794
0.138894
0.138995
0.139095
0.139195
0.139295
0.139395
0.139495
0.139595
0.139696
0.139796
0.139896
0.139996
0.140096
0.140196
0.140296
0.140397
0.140497
0.140597
0.140697
0.140797
0.140897
0.140997
0.141098
0.141198
0.141298
0.141398
0.141498
0.141598
0.141698
0.141799
0.141899
0.141999
0.142099
0.142199
0.142299
0.142399
0.142499
0.1426
0.1427
0.1428
0.1429
0.143
0.1431
0.1432
0.143301
0.143401
0.143501
0.143601
0.143701
0.143801
0.143901
0.144002
0.144102
0.144202
0.144302
0.144402
0.144502
0.144602
0.144703
0.144803
0.144903
0.145003
0.145103
0.145203
0.145303
0.145404
0.145504
0.145604
0.145704
0.145804
0.145904
0.146004
0.146105
0.146205
0.146305
0.146405
0.146505
0.146605
0.146705
0.146806
0.146906
0.147006
0.147106
0.147206
0.147306
0.147406
0.147507
0.147607
0.147707
0.147807
0.147907
0.148007
0.148107
0.148207
0.148308
0.148408
0.148508
0.148608
0.148708
0.148808
0.148908
0.149009
0.149109
0.149209
0.149309
0.149409
0.149509
0.149609
0.14971
0.14981
0.14991
0.15001
0.15011
0.15021
0.15031
0.150411
0.150511
0.150611
0.150711
0.150811
0.150911
0.151011
0.151112
0.151212
0.151312
0.151412
0.151512
0.151612
0.151712
0.151813
0.151913
0.152013
0.152113
0.152213
0.152313
0.152413
0.152514
0.152614
0.152714
0.152814
0.152914
0.153014
0.153114
0.153215
0.153315
0.153415
0.153515
0.153615
0.153715
0.153815
0.153915
0.154016
0.154116
0.154216
0.154316
0.154416
0.154516
0.154616
0.154717
0.154817
0.154917
0.155017
0.155117
0.155217
0.155317
0.155418
0.155518
0.155618
0.155718
0.155818
0.155918
0.156018
0.156119
0.156219
0.156319
0.156419
0.156519
0.156619
0.156719
0.15682
0.15692
0.15702
0.15712
0.15722
0.15732
0.15742
0.157521
0.157621
0.157721
0.157821
0.157921
0.158021
0.158121
0.158222
0.158322
0.158422
0.158522
0.158622
0.158722
0.158822
0.158922
0.159023
0.159123
0.159223
0.159323
0.159423
0.159523
0.159623
0.159724
0.159824
0.159924
0.160024
0.160124
0.160224
0.160324
0.160425
0.160525
0.160625
0.160725
0.160825
0.160925
0.161025
0.161126
0.161226
0.161326
0.161426
0.161526
0.161626
0.161726
0.161827
0.161927
0.162027
0.162127
0.162227
0.162327
0.162427
0.162528
0.162628
0.162728
0.162828
0.162928
0.163028
0.163128
0.163229
0.163329
0.163429
0.163529
0.163629
0.163729
0.163829
0.16393
0.16403
0.16413
0.16423
0.16433
0.16443
0.16453
0.16463
0.164731
0.164831
0.164931
0.165031
0.165131
0.165231
0.165331
0.165432
0.165532
0.165632
0.165732
0.165832
0.165932
0.166032
0.166133
0.166233
0.166333
0.166433
0.166533
0.166633
0.166733
0.166834
0.166934
0.167034
0.167134
0.167234
0.167334
0.167434
0.167535
0.167635
0.167735
0.167835
0.167935
0.168035
0.168135
0.168236
0.168336
0.168436
0.168536
0.168636
0.168736
0.168836
0.168937
0.169037
0.169137
0.169237
0.169337
0.169437
0.169537
0.169637
0.169738
0.169838
0.169938
0.170038
0.170138
0.170238
0.170338
0.170439
0.170539
0.170639
0.170739
0.170839
0.170939
0.171039
0.17114
0.17124
0.17134
0.17144
0.17154
0.17164
0.17174
0.171841
0.171941
0.172041
0.172141
0.172241
0.172341
0.172441
0.172542
0.172642
0.172742
0.172842
0.172942
0.173042
0.173142
0.173243
0.173343
0.173443
0.173543
0.173643
0.173743
0.173843
0.173944
0.174044
0.174144
0.174244
0.174344
0.174444
0.174544
0.174645
0.174745
0.174845
0.174945
0.175045
0.175145
0.175245
0.175345
0.175446
0.175546
0.175646
0.175746
0.175846
0.175946
0.176046
0.176147
0.176247
0.176347
0.176447
0.176547
0.176647
0.176747
0.176848
0.176948
0.177048
0.177148
0.177248
0.177348
0.177448
0.177549
0.177649
0.177749
0.177849
0.177949
0.178049
0.178149
0.17825
0.17835
0.17845
0.17855
0.17865
0.17875
0.17885
0.178951
0.179051
0.179151
0.179251
0.179351
0.179451
0.179551
0.179652
0.179752
0.179852
0.179952
0.180052
0.180152
0.180252
0.180352
0.180453
0.180553
0.180653
0.180753
0.180853
0.180953
0.181053
0.181154
0.181254
0.181354
0.181454
0.181554
0.181654
0.181754
0.181855
0.181955
0.182055
0.182155
0.182255
0.182355
0.182455
0.182556
0.182656
0.182756
0.182856
0.182956
0.183056
0.183156
0.183257
0.183357
0.183457
0.183557
0.183657
0.183757
0.183857
0.183958
0.184058
0.184158
0.184258
0.184358
0.184458
0.184558
0.184659
0.184759
0.184859
0.184959
0.185059
0.185159
0.185259
0.18536
0.18546
0.18556
0.18566
0.18576
0.18586
0.18596
0.18606
0.186161
0.186261
0.186361
0.186461
0.186561
0.186661
0.186761
0.186862
0.186962
0.187062
0.187162
0.187262
0.187362
0.187462
0.187563
0.187663
0.187763
0.187863
0.187963
0.188063
0.188163
0.188264
0.188364
0.188464
0.188564
0.188664
0.188764
0.188864
0.188965
0.189065
0.189165
0.189265
0.189365
0.189465
0.189565
0.189666
0.189766
0.189866
0.189966
0.190066
0.190166
0.190266
0.190367
0.190467
0.190567
0.190667
0.190767
0.190867
0.190967
0.191067
0.191168
0.191268
0.191368
0.191468
0.191568
0.191668
0.191768
0.191869
0.191969
0.192069
0.192169
0.192269
0.192369
0.192469
0.19257
0.19267
0.19277
0.19287
0.19297
0.19307
0.19317
0.193271
0.193371
0.193471
0.193571
0.193671
0.193771
0.193871
0.193972
0.194072
0.194172
0.194272
0.194372
0.194472
0.194572
0.194673
0.194773
0.194873
0.194973
0.195073
0.195173
0.195273
0.195374
0.195474
0.195574
0.195674
0.195774
0.195874
0.195974
0.196075
0.196175
0.196275
0.196375
0.196475
0.196575
0.196675
0.196775
0.196876
0.196976
0.197076
0.197176
0.197276
0.197376
0.197476
0.197577
0.197677
0.197777
0.197877
0.197977
0.198077
0.198177
0.198278
0.198378
0.198478
0.198578
0.198678
0.198778
0.198878
0.198979
0.199079
0.199179
0.199279
0.199379
0.199479
0.199579
0.19968
0.19978
0.19988
0.19998
0.20008
0.20018
0.20028
0.200381
0.200481
0.200581
0.200681
0.200781
0.200881
0.200981
0.201082
0.201182
0.201282
0.201382
0.201482
0.201582
0.201682
0.201782
0.201883
0.201983
0.202083
0.202183
0.202283
0.202383
0.202483
0.202584
0.202684
0.202784
0.202884
0.202984
0.203084
0.203184
0.203285
0.203385
0.203485
0.203585
0.203685
0.203785
0.203885
0.203986
0.204086
0.204186
0.204286
0.204386
0.204486
0.204586
0.204687
0.204787
0.204887
0.204987
0.205087
0.205187
0.205287
0.205388
0.205488
0.205588
0.205688
0.205788
0.205888
0.205988
0.206089
0.206189
0.206289
0.206389
0.206489
0.206589
0.206689
0.20679
0.20689
0.20699
0.20709
0.20719
0.20729
0.20739
0.20749
0.207591
0.207691
0.207791
0.207891
0.207991
0.208091
0.208191
0.208292
0.208392
0.208492
0.208592
0.208692
0.208792
0.208892
0.208993
0.209093
0.209193
0.209293
0.209393
0.209493
0.209593
0.209694
0.209794
0.209894
0.209994
0.210094
0.210194
0.210294
0.210395
0.210495
0.210595
0.210695
0.210795
0.210895
0.210995
0.211096
0.211196
0.211296
0.211396
0.211496
0.211596
0.211696
0.211797
0.211897
0.211997
0.212097